n -t 0 -s 0 -S DLABEL -l "S1" -L ""
n -t 0 -s 4 -S DLABEL -l "D1" -L ""
n -t 0 -s 1 -S DLABEL -l "S2" -L ""
n -t 0 -s 5 -S DLABEL -l "D2" -L ""
V -t * -v 1.0a5 -a 0
A -t * -n 1 -p 0 -o 0x7fffffff -c 30 -a 1
A -t * -h 1 -m 1073741823 -s 0
c -t * -i 1 -n blue
c -t * -i 2 -n red
n -t * -a 4 -s 4 -S UP -v circle -c blue -i blue
n -t * -a 0 -s 0 -S UP -v circle -c blue -i blue
n -t * -a 5 -s 5 -S UP -v circle -c red -i red
n -t * -a 1 -s 1 -S UP -v circle -c red -i red
n -t * -a 2 -s 2 -S UP -v circle -c black -i black
n -t * -a 3 -s 3 -S UP -v circle -c black -i black
l -t * -s 0 -d 2 -S UP -r 10000000 -D 0.01 -c black -o right-down
l -t * -s 1 -d 2 -S UP -r 10000000 -D 0.01 -c black -o right-up
l -t * -s 2 -d 3 -S UP -r 10000000 -D 0.01 -c black -o right
l -t * -s 3 -d 4 -S UP -r 10000000 -D 0.01 -c black -o right-up
l -t * -s 3 -d 5 -S UP -r 10000000 -D 0.01 -c black -o right-down
+ -t 0.000169788487334637 -s 0 -d 2 -p rtProtoDV -e 6 -c 0 -i 0 -a 0 -x {0.2 2.1 -1 ------- null}
- -t 0.000169788487334637 -s 0 -d 2 -p rtProtoDV -e 6 -c 0 -i 0 -a 0 -x {0.2 2.1 -1 ------- null}
h -t 0.000169788487334637 -s 0 -d 2 -p rtProtoDV -e 6 -c 0 -i 0 -a 0 -x {0.2 2.1 -1 ------- null}
+ -t 0.00710233021858257 -s 2 -d 0 -p rtProtoDV -e 6 -c 0 -i 1 -a 0 -x {2.1 0.2 -1 ------- null}
- -t 0.00710233021858257 -s 2 -d 0 -p rtProtoDV -e 6 -c 0 -i 1 -a 0 -x {2.1 0.2 -1 ------- null}
h -t 0.00710233021858257 -s 2 -d 0 -p rtProtoDV -e 6 -c 0 -i 1 -a 0 -x {2.1 0.2 -1 ------- null}
+ -t 0.00710233021858257 -s 2 -d 1 -p rtProtoDV -e 6 -c 0 -i 2 -a 0 -x {2.1 1.1 -1 ------- null}
- -t 0.00710233021858257 -s 2 -d 1 -p rtProtoDV -e 6 -c 0 -i 2 -a 0 -x {2.1 1.1 -1 ------- null}
h -t 0.00710233021858257 -s 2 -d 1 -p rtProtoDV -e 6 -c 0 -i 2 -a 0 -x {2.1 1.1 -1 ------- null}
+ -t 0.00710233021858257 -s 2 -d 3 -p rtProtoDV -e 6 -c 0 -i 3 -a 0 -x {2.1 3.1 -1 ------- null}
- -t 0.00710233021858257 -s 2 -d 3 -p rtProtoDV -e 6 -c 0 -i 3 -a 0 -x {2.1 3.1 -1 ------- null}
h -t 0.00710233021858257 -s 2 -d 3 -p rtProtoDV -e 6 -c 0 -i 3 -a 0 -x {2.1 3.1 -1 ------- null}
r -t 0.0101745884873346 -s 0 -d 2 -p rtProtoDV -e 6 -c 0 -i 0 -a 0 -x {0.2 2.1 -1 ------- null}
r -t 0.0171071302185826 -s 2 -d 0 -p rtProtoDV -e 6 -c 0 -i 1 -a 0 -x {2.1 0.2 -1 ------- null}
+ -t 0.0171071302185826 -s 0 -d 2 -p rtProtoDV -e 6 -c 0 -i 4 -a 0 -x {0.2 2.1 -1 ------- null}
- -t 0.0171071302185826 -s 0 -d 2 -p rtProtoDV -e 6 -c 0 -i 4 -a 0 -x {0.2 2.1 -1 ------- null}
h -t 0.0171071302185826 -s 0 -d 2 -p rtProtoDV -e 6 -c 0 -i 4 -a 0 -x {0.2 2.1 -1 ------- null}
r -t 0.0171071302185826 -s 2 -d 1 -p rtProtoDV -e 6 -c 0 -i 2 -a 0 -x {2.1 1.1 -1 ------- null}
+ -t 0.0171071302185826 -s 1 -d 2 -p rtProtoDV -e 6 -c 0 -i 5 -a 0 -x {1.1 2.1 -1 ------- null}
- -t 0.0171071302185826 -s 1 -d 2 -p rtProtoDV -e 6 -c 0 -i 5 -a 0 -x {1.1 2.1 -1 ------- null}
h -t 0.0171071302185826 -s 1 -d 2 -p rtProtoDV -e 6 -c 0 -i 5 -a 0 -x {1.1 2.1 -1 ------- null}
r -t 0.0171071302185826 -s 2 -d 3 -p rtProtoDV -e 6 -c 0 -i 3 -a 0 -x {2.1 3.1 -1 ------- null}
+ -t 0.0171071302185826 -s 3 -d 2 -p rtProtoDV -e 6 -c 0 -i 6 -a 0 -x {3.1 2.1 -1 ------- null}
- -t 0.0171071302185826 -s 3 -d 2 -p rtProtoDV -e 6 -c 0 -i 6 -a 0 -x {3.1 2.1 -1 ------- null}
h -t 0.0171071302185826 -s 3 -d 2 -p rtProtoDV -e 6 -c 0 -i 6 -a 0 -x {3.1 2.1 -1 ------- null}
+ -t 0.0171071302185826 -s 3 -d 4 -p rtProtoDV -e 6 -c 0 -i 7 -a 0 -x {3.1 4.2 -1 ------- null}
- -t 0.0171071302185826 -s 3 -d 4 -p rtProtoDV -e 6 -c 0 -i 7 -a 0 -x {3.1 4.2 -1 ------- null}
h -t 0.0171071302185826 -s 3 -d 4 -p rtProtoDV -e 6 -c 0 -i 7 -a 0 -x {3.1 4.2 -1 ------- null}
+ -t 0.0171071302185826 -s 3 -d 5 -p rtProtoDV -e 6 -c 0 -i 8 -a 0 -x {3.1 5.1 -1 ------- null}
- -t 0.0171071302185826 -s 3 -d 5 -p rtProtoDV -e 6 -c 0 -i 8 -a 0 -x {3.1 5.1 -1 ------- null}
h -t 0.0171071302185826 -s 3 -d 5 -p rtProtoDV -e 6 -c 0 -i 8 -a 0 -x {3.1 5.1 -1 ------- null}
r -t 0.0271119302185826 -s 0 -d 2 -p rtProtoDV -e 6 -c 0 -i 4 -a 0 -x {0.2 2.1 -1 ------- null}
r -t 0.0271119302185826 -s 1 -d 2 -p rtProtoDV -e 6 -c 0 -i 5 -a 0 -x {1.1 2.1 -1 ------- null}
r -t 0.0271119302185826 -s 3 -d 2 -p rtProtoDV -e 6 -c 0 -i 6 -a 0 -x {3.1 2.1 -1 ------- null}
+ -t 0.0271119302185826 -s 2 -d 0 -p rtProtoDV -e 6 -c 0 -i 9 -a 0 -x {2.1 0.2 -1 ------- null}
- -t 0.0271119302185826 -s 2 -d 0 -p rtProtoDV -e 6 -c 0 -i 9 -a 0 -x {2.1 0.2 -1 ------- null}
h -t 0.0271119302185826 -s 2 -d 0 -p rtProtoDV -e 6 -c 0 -i 9 -a 0 -x {2.1 0.2 -1 ------- null}
+ -t 0.0271119302185826 -s 2 -d 1 -p rtProtoDV -e 6 -c 0 -i 10 -a 0 -x {2.1 1.1 -1 ------- null}
- -t 0.0271119302185826 -s 2 -d 1 -p rtProtoDV -e 6 -c 0 -i 10 -a 0 -x {2.1 1.1 -1 ------- null}
h -t 0.0271119302185826 -s 2 -d 1 -p rtProtoDV -e 6 -c 0 -i 10 -a 0 -x {2.1 1.1 -1 ------- null}
+ -t 0.0271119302185826 -s 2 -d 3 -p rtProtoDV -e 6 -c 0 -i 11 -a 0 -x {2.1 3.1 -1 ------- null}
- -t 0.0271119302185826 -s 2 -d 3 -p rtProtoDV -e 6 -c 0 -i 11 -a 0 -x {2.1 3.1 -1 ------- null}
h -t 0.0271119302185826 -s 2 -d 3 -p rtProtoDV -e 6 -c 0 -i 11 -a 0 -x {2.1 3.1 -1 ------- null}
r -t 0.0271119302185826 -s 3 -d 4 -p rtProtoDV -e 6 -c 0 -i 7 -a 0 -x {3.1 4.2 -1 ------- null}
+ -t 0.0271119302185826 -s 4 -d 3 -p rtProtoDV -e 6 -c 0 -i 12 -a 0 -x {4.2 3.1 -1 ------- null}
- -t 0.0271119302185826 -s 4 -d 3 -p rtProtoDV -e 6 -c 0 -i 12 -a 0 -x {4.2 3.1 -1 ------- null}
h -t 0.0271119302185826 -s 4 -d 3 -p rtProtoDV -e 6 -c 0 -i 12 -a 0 -x {4.2 3.1 -1 ------- null}
r -t 0.0271119302185826 -s 3 -d 5 -p rtProtoDV -e 6 -c 0 -i 8 -a 0 -x {3.1 5.1 -1 ------- null}
+ -t 0.0271119302185826 -s 5 -d 3 -p rtProtoDV -e 6 -c 0 -i 13 -a 0 -x {5.1 3.1 -1 ------- null}
- -t 0.0271119302185826 -s 5 -d 3 -p rtProtoDV -e 6 -c 0 -i 13 -a 0 -x {5.1 3.1 -1 ------- null}
h -t 0.0271119302185826 -s 5 -d 3 -p rtProtoDV -e 6 -c 0 -i 13 -a 0 -x {5.1 3.1 -1 ------- null}
r -t 0.0371167302185826 -s 2 -d 0 -p rtProtoDV -e 6 -c 0 -i 9 -a 0 -x {2.1 0.2 -1 ------- null}
+ -t 0.0371167302185826 -s 0 -d 2 -p rtProtoDV -e 6 -c 0 -i 14 -a 0 -x {0.2 2.1 -1 ------- null}
- -t 0.0371167302185826 -s 0 -d 2 -p rtProtoDV -e 6 -c 0 -i 14 -a 0 -x {0.2 2.1 -1 ------- null}
h -t 0.0371167302185826 -s 0 -d 2 -p rtProtoDV -e 6 -c 0 -i 14 -a 0 -x {0.2 2.1 -1 ------- null}
r -t 0.0371167302185826 -s 2 -d 1 -p rtProtoDV -e 6 -c 0 -i 10 -a 0 -x {2.1 1.1 -1 ------- null}
+ -t 0.0371167302185826 -s 1 -d 2 -p rtProtoDV -e 6 -c 0 -i 15 -a 0 -x {1.1 2.1 -1 ------- null}
- -t 0.0371167302185826 -s 1 -d 2 -p rtProtoDV -e 6 -c 0 -i 15 -a 0 -x {1.1 2.1 -1 ------- null}
h -t 0.0371167302185826 -s 1 -d 2 -p rtProtoDV -e 6 -c 0 -i 15 -a 0 -x {1.1 2.1 -1 ------- null}
r -t 0.0371167302185826 -s 2 -d 3 -p rtProtoDV -e 6 -c 0 -i 11 -a 0 -x {2.1 3.1 -1 ------- null}
r -t 0.0371167302185826 -s 4 -d 3 -p rtProtoDV -e 6 -c 0 -i 12 -a 0 -x {4.2 3.1 -1 ------- null}
r -t 0.0371167302185826 -s 5 -d 3 -p rtProtoDV -e 6 -c 0 -i 13 -a 0 -x {5.1 3.1 -1 ------- null}
+ -t 0.04406133552271 -s 3 -d 2 -p rtProtoDV -e 6 -c 0 -i 16 -a 0 -x {3.1 2.1 -1 ------- null}
- -t 0.04406133552271 -s 3 -d 2 -p rtProtoDV -e 6 -c 0 -i 16 -a 0 -x {3.1 2.1 -1 ------- null}
h -t 0.04406133552271 -s 3 -d 2 -p rtProtoDV -e 6 -c 0 -i 16 -a 0 -x {3.1 2.1 -1 ------- null}
+ -t 0.04406133552271 -s 3 -d 4 -p rtProtoDV -e 6 -c 0 -i 17 -a 0 -x {3.1 4.2 -1 ------- null}
- -t 0.04406133552271 -s 3 -d 4 -p rtProtoDV -e 6 -c 0 -i 17 -a 0 -x {3.1 4.2 -1 ------- null}
h -t 0.04406133552271 -s 3 -d 4 -p rtProtoDV -e 6 -c 0 -i 17 -a 0 -x {3.1 4.2 -1 ------- null}
+ -t 0.04406133552271 -s 3 -d 5 -p rtProtoDV -e 6 -c 0 -i 18 -a 0 -x {3.1 5.1 -1 ------- null}
- -t 0.04406133552271 -s 3 -d 5 -p rtProtoDV -e 6 -c 0 -i 18 -a 0 -x {3.1 5.1 -1 ------- null}
h -t 0.04406133552271 -s 3 -d 5 -p rtProtoDV -e 6 -c 0 -i 18 -a 0 -x {3.1 5.1 -1 ------- null}
r -t 0.0471215302185826 -s 0 -d 2 -p rtProtoDV -e 6 -c 0 -i 14 -a 0 -x {0.2 2.1 -1 ------- null}
r -t 0.0471215302185826 -s 1 -d 2 -p rtProtoDV -e 6 -c 0 -i 15 -a 0 -x {1.1 2.1 -1 ------- null}
r -t 0.05406613552271 -s 3 -d 2 -p rtProtoDV -e 6 -c 0 -i 16 -a 0 -x {3.1 2.1 -1 ------- null}
r -t 0.05406613552271 -s 3 -d 4 -p rtProtoDV -e 6 -c 0 -i 17 -a 0 -x {3.1 4.2 -1 ------- null}
r -t 0.05406613552271 -s 3 -d 5 -p rtProtoDV -e 6 -c 0 -i 18 -a 0 -x {3.1 5.1 -1 ------- null}
+ -t 0.22058669092161 -s 4 -d 3 -p rtProtoDV -e 6 -c 0 -i 19 -a 0 -x {4.2 3.1 -1 ------- null}
- -t 0.22058669092161 -s 4 -d 3 -p rtProtoDV -e 6 -c 0 -i 19 -a 0 -x {4.2 3.1 -1 ------- null}
h -t 0.22058669092161 -s 4 -d 3 -p rtProtoDV -e 6 -c 0 -i 19 -a 0 -x {4.2 3.1 -1 ------- null}
r -t 0.23059149092161 -s 4 -d 3 -p rtProtoDV -e 6 -c 0 -i 19 -a 0 -x {4.2 3.1 -1 ------- null}
+ -t 0.277940357931862 -s 1 -d 2 -p rtProtoDV -e 6 -c 0 -i 20 -a 0 -x {1.1 2.1 -1 ------- null}
- -t 0.277940357931862 -s 1 -d 2 -p rtProtoDV -e 6 -c 0 -i 20 -a 0 -x {1.1 2.1 -1 ------- null}
h -t 0.277940357931862 -s 1 -d 2 -p rtProtoDV -e 6 -c 0 -i 20 -a 0 -x {1.1 2.1 -1 ------- null}
r -t 0.287945157931862 -s 1 -d 2 -p rtProtoDV -e 6 -c 0 -i 20 -a 0 -x {1.1 2.1 -1 ------- null}
+ -t 0.399577726796073 -s 5 -d 3 -p rtProtoDV -e 6 -c 0 -i 21 -a 0 -x {5.1 3.1 -1 ------- null}
- -t 0.399577726796073 -s 5 -d 3 -p rtProtoDV -e 6 -c 0 -i 21 -a 0 -x {5.1 3.1 -1 ------- null}
h -t 0.399577726796073 -s 5 -d 3 -p rtProtoDV -e 6 -c 0 -i 21 -a 0 -x {5.1 3.1 -1 ------- null}
r -t 0.409582526796073 -s 5 -d 3 -p rtProtoDV -e 6 -c 0 -i 21 -a 0 -x {5.1 3.1 -1 ------- null}
+ -t 1 -s 0 -d 2 -p tcp -e 40 -c 1 -i 22 -a 1 -x {0.0 4.0 0 ------- null}
- -t 1 -s 0 -d 2 -p tcp -e 40 -c 1 -i 22 -a 1 -x {0.0 4.0 0 ------- null}
h -t 1 -s 0 -d 2 -p tcp -e 40 -c 1 -i 22 -a 1 -x {0.0 4.0 -1 ------- null}
r -t 1.010032 -s 0 -d 2 -p tcp -e 40 -c 1 -i 22 -a 1 -x {0.0 4.0 0 ------- null}
+ -t 1.010032 -s 2 -d 3 -p tcp -e 40 -c 1 -i 22 -a 1 -x {0.0 4.0 0 ------- null}
- -t 1.010032 -s 2 -d 3 -p tcp -e 40 -c 1 -i 22 -a 1 -x {0.0 4.0 0 ------- null}
h -t 1.010032 -s 2 -d 3 -p tcp -e 40 -c 1 -i 22 -a 1 -x {0.0 4.0 -1 ------- null}
r -t 1.020064 -s 2 -d 3 -p tcp -e 40 -c 1 -i 22 -a 1 -x {0.0 4.0 0 ------- null}
+ -t 1.020064 -s 3 -d 4 -p tcp -e 40 -c 1 -i 22 -a 1 -x {0.0 4.0 0 ------- null}
- -t 1.020064 -s 3 -d 4 -p tcp -e 40 -c 1 -i 22 -a 1 -x {0.0 4.0 0 ------- null}
h -t 1.020064 -s 3 -d 4 -p tcp -e 40 -c 1 -i 22 -a 1 -x {0.0 4.0 -1 ------- null}
r -t 1.030096 -s 3 -d 4 -p tcp -e 40 -c 1 -i 22 -a 1 -x {0.0 4.0 0 ------- null}
+ -t 1.030096 -s 4 -d 3 -p ack -e 40 -c 1 -i 23 -a 1 -x {4.0 0.0 0 ------- null}
- -t 1.030096 -s 4 -d 3 -p ack -e 40 -c 1 -i 23 -a 1 -x {4.0 0.0 0 ------- null}
h -t 1.030096 -s 4 -d 3 -p ack -e 40 -c 1 -i 23 -a 1 -x {4.0 0.0 -1 ------- null}
r -t 1.040128 -s 4 -d 3 -p ack -e 40 -c 1 -i 23 -a 1 -x {4.0 0.0 0 ------- null}
+ -t 1.040128 -s 3 -d 2 -p ack -e 40 -c 1 -i 23 -a 1 -x {4.0 0.0 0 ------- null}
- -t 1.040128 -s 3 -d 2 -p ack -e 40 -c 1 -i 23 -a 1 -x {4.0 0.0 0 ------- null}
h -t 1.040128 -s 3 -d 2 -p ack -e 40 -c 1 -i 23 -a 1 -x {4.0 0.0 -1 ------- null}
r -t 1.05016 -s 3 -d 2 -p ack -e 40 -c 1 -i 23 -a 1 -x {4.0 0.0 0 ------- null}
+ -t 1.05016 -s 2 -d 0 -p ack -e 40 -c 1 -i 23 -a 1 -x {4.0 0.0 0 ------- null}
- -t 1.05016 -s 2 -d 0 -p ack -e 40 -c 1 -i 23 -a 1 -x {4.0 0.0 0 ------- null}
h -t 1.05016 -s 2 -d 0 -p ack -e 40 -c 1 -i 23 -a 1 -x {4.0 0.0 -1 ------- null}
r -t 1.060192 -s 2 -d 0 -p ack -e 40 -c 1 -i 23 -a 1 -x {4.0 0.0 0 ------- null}
+ -t 1.060192 -s 0 -d 2 -p tcp -e 1040 -c 1 -i 24 -a 1 -x {0.0 4.0 1 ------- null}
- -t 1.060192 -s 0 -d 2 -p tcp -e 1040 -c 1 -i 24 -a 1 -x {0.0 4.0 1 ------- null}
h -t 1.060192 -s 0 -d 2 -p tcp -e 1040 -c 1 -i 24 -a 1 -x {0.0 4.0 -1 ------- null}
+ -t 1.060192 -s 0 -d 2 -p tcp -e 1040 -c 1 -i 25 -a 1 -x {0.0 4.0 2 ------- null}
- -t 1.061024 -s 0 -d 2 -p tcp -e 1040 -c 1 -i 25 -a 1 -x {0.0 4.0 2 ------- null}
h -t 1.061024 -s 0 -d 2 -p tcp -e 1040 -c 1 -i 25 -a 1 -x {0.0 4.0 -1 ------- null}
r -t 1.071024 -s 0 -d 2 -p tcp -e 1040 -c 1 -i 24 -a 1 -x {0.0 4.0 1 ------- null}
+ -t 1.071024 -s 2 -d 3 -p tcp -e 1040 -c 1 -i 24 -a 1 -x {0.0 4.0 1 ------- null}
- -t 1.071024 -s 2 -d 3 -p tcp -e 1040 -c 1 -i 24 -a 1 -x {0.0 4.0 1 ------- null}
h -t 1.071024 -s 2 -d 3 -p tcp -e 1040 -c 1 -i 24 -a 1 -x {0.0 4.0 -1 ------- null}
r -t 1.071856 -s 0 -d 2 -p tcp -e 1040 -c 1 -i 25 -a 1 -x {0.0 4.0 2 ------- null}
+ -t 1.071856 -s 2 -d 3 -p tcp -e 1040 -c 1 -i 25 -a 1 -x {0.0 4.0 2 ------- null}
- -t 1.071856 -s 2 -d 3 -p tcp -e 1040 -c 1 -i 25 -a 1 -x {0.0 4.0 2 ------- null}
h -t 1.071856 -s 2 -d 3 -p tcp -e 1040 -c 1 -i 25 -a 1 -x {0.0 4.0 -1 ------- null}
r -t 1.081856 -s 2 -d 3 -p tcp -e 1040 -c 1 -i 24 -a 1 -x {0.0 4.0 1 ------- null}
+ -t 1.081856 -s 3 -d 4 -p tcp -e 1040 -c 1 -i 24 -a 1 -x {0.0 4.0 1 ------- null}
- -t 1.081856 -s 3 -d 4 -p tcp -e 1040 -c 1 -i 24 -a 1 -x {0.0 4.0 1 ------- null}
h -t 1.081856 -s 3 -d 4 -p tcp -e 1040 -c 1 -i 24 -a 1 -x {0.0 4.0 -1 ------- null}
r -t 1.082688 -s 2 -d 3 -p tcp -e 1040 -c 1 -i 25 -a 1 -x {0.0 4.0 2 ------- null}
+ -t 1.082688 -s 3 -d 4 -p tcp -e 1040 -c 1 -i 25 -a 1 -x {0.0 4.0 2 ------- null}
- -t 1.082688 -s 3 -d 4 -p tcp -e 1040 -c 1 -i 25 -a 1 -x {0.0 4.0 2 ------- null}
h -t 1.082688 -s 3 -d 4 -p tcp -e 1040 -c 1 -i 25 -a 1 -x {0.0 4.0 -1 ------- null}
r -t 1.092688 -s 3 -d 4 -p tcp -e 1040 -c 1 -i 24 -a 1 -x {0.0 4.0 1 ------- null}
+ -t 1.092688 -s 4 -d 3 -p ack -e 40 -c 1 -i 26 -a 1 -x {4.0 0.0 1 ------- null}
- -t 1.092688 -s 4 -d 3 -p ack -e 40 -c 1 -i 26 -a 1 -x {4.0 0.0 1 ------- null}
h -t 1.092688 -s 4 -d 3 -p ack -e 40 -c 1 -i 26 -a 1 -x {4.0 0.0 -1 ------- null}
r -t 1.09352 -s 3 -d 4 -p tcp -e 1040 -c 1 -i 25 -a 1 -x {0.0 4.0 2 ------- null}
+ -t 1.09352 -s 4 -d 3 -p ack -e 40 -c 1 -i 27 -a 1 -x {4.0 0.0 2 ------- null}
- -t 1.09352 -s 4 -d 3 -p ack -e 40 -c 1 -i 27 -a 1 -x {4.0 0.0 2 ------- null}
h -t 1.09352 -s 4 -d 3 -p ack -e 40 -c 1 -i 27 -a 1 -x {4.0 0.0 -1 ------- null}
r -t 1.10272 -s 4 -d 3 -p ack -e 40 -c 1 -i 26 -a 1 -x {4.0 0.0 1 ------- null}
+ -t 1.10272 -s 3 -d 2 -p ack -e 40 -c 1 -i 26 -a 1 -x {4.0 0.0 1 ------- null}
- -t 1.10272 -s 3 -d 2 -p ack -e 40 -c 1 -i 26 -a 1 -x {4.0 0.0 1 ------- null}
h -t 1.10272 -s 3 -d 2 -p ack -e 40 -c 1 -i 26 -a 1 -x {4.0 0.0 -1 ------- null}
r -t 1.103552 -s 4 -d 3 -p ack -e 40 -c 1 -i 27 -a 1 -x {4.0 0.0 2 ------- null}
+ -t 1.103552 -s 3 -d 2 -p ack -e 40 -c 1 -i 27 -a 1 -x {4.0 0.0 2 ------- null}
- -t 1.103552 -s 3 -d 2 -p ack -e 40 -c 1 -i 27 -a 1 -x {4.0 0.0 2 ------- null}
h -t 1.103552 -s 3 -d 2 -p ack -e 40 -c 1 -i 27 -a 1 -x {4.0 0.0 -1 ------- null}
r -t 1.112752 -s 3 -d 2 -p ack -e 40 -c 1 -i 26 -a 1 -x {4.0 0.0 1 ------- null}
+ -t 1.112752 -s 2 -d 0 -p ack -e 40 -c 1 -i 26 -a 1 -x {4.0 0.0 1 ------- null}
- -t 1.112752 -s 2 -d 0 -p ack -e 40 -c 1 -i 26 -a 1 -x {4.0 0.0 1 ------- null}
h -t 1.112752 -s 2 -d 0 -p ack -e 40 -c 1 -i 26 -a 1 -x {4.0 0.0 -1 ------- null}
r -t 1.113584 -s 3 -d 2 -p ack -e 40 -c 1 -i 27 -a 1 -x {4.0 0.0 2 ------- null}
+ -t 1.113584 -s 2 -d 0 -p ack -e 40 -c 1 -i 27 -a 1 -x {4.0 0.0 2 ------- null}
- -t 1.113584 -s 2 -d 0 -p ack -e 40 -c 1 -i 27 -a 1 -x {4.0 0.0 2 ------- null}
h -t 1.113584 -s 2 -d 0 -p ack -e 40 -c 1 -i 27 -a 1 -x {4.0 0.0 -1 ------- null}
r -t 1.122784 -s 2 -d 0 -p ack -e 40 -c 1 -i 26 -a 1 -x {4.0 0.0 1 ------- null}
+ -t 1.122784 -s 0 -d 2 -p tcp -e 1040 -c 1 -i 28 -a 1 -x {0.0 4.0 3 ------- null}
- -t 1.122784 -s 0 -d 2 -p tcp -e 1040 -c 1 -i 28 -a 1 -x {0.0 4.0 3 ------- null}
h -t 1.122784 -s 0 -d 2 -p tcp -e 1040 -c 1 -i 28 -a 1 -x {0.0 4.0 -1 ------- null}
+ -t 1.122784 -s 0 -d 2 -p tcp -e 1040 -c 1 -i 29 -a 1 -x {0.0 4.0 4 ------- null}
r -t 1.123616 -s 2 -d 0 -p ack -e 40 -c 1 -i 27 -a 1 -x {4.0 0.0 2 ------- null}
+ -t 1.123616 -s 0 -d 2 -p tcp -e 1040 -c 1 -i 30 -a 1 -x {0.0 4.0 5 ------- null}
+ -t 1.123616 -s 0 -d 2 -p tcp -e 1040 -c 1 -i 31 -a 1 -x {0.0 4.0 6 ------- null}
- -t 1.123616 -s 0 -d 2 -p tcp -e 1040 -c 1 -i 29 -a 1 -x {0.0 4.0 4 ------- null}
h -t 1.123616 -s 0 -d 2 -p tcp -e 1040 -c 1 -i 29 -a 1 -x {0.0 4.0 -1 ------- null}
- -t 1.124448 -s 0 -d 2 -p tcp -e 1040 -c 1 -i 30 -a 1 -x {0.0 4.0 5 ------- null}
h -t 1.124448 -s 0 -d 2 -p tcp -e 1040 -c 1 -i 30 -a 1 -x {0.0 4.0 -1 ------- null}
- -t 1.12528 -s 0 -d 2 -p tcp -e 1040 -c 1 -i 31 -a 1 -x {0.0 4.0 6 ------- null}
h -t 1.12528 -s 0 -d 2 -p tcp -e 1040 -c 1 -i 31 -a 1 -x {0.0 4.0 -1 ------- null}
r -t 1.133616 -s 0 -d 2 -p tcp -e 1040 -c 1 -i 28 -a 1 -x {0.0 4.0 3 ------- null}
+ -t 1.133616 -s 2 -d 3 -p tcp -e 1040 -c 1 -i 28 -a 1 -x {0.0 4.0 3 ------- null}
- -t 1.133616 -s 2 -d 3 -p tcp -e 1040 -c 1 -i 28 -a 1 -x {0.0 4.0 3 ------- null}
h -t 1.133616 -s 2 -d 3 -p tcp -e 1040 -c 1 -i 28 -a 1 -x {0.0 4.0 -1 ------- null}
r -t 1.134448 -s 0 -d 2 -p tcp -e 1040 -c 1 -i 29 -a 1 -x {0.0 4.0 4 ------- null}
+ -t 1.134448 -s 2 -d 3 -p tcp -e 1040 -c 1 -i 29 -a 1 -x {0.0 4.0 4 ------- null}
- -t 1.134448 -s 2 -d 3 -p tcp -e 1040 -c 1 -i 29 -a 1 -x {0.0 4.0 4 ------- null}
h -t 1.134448 -s 2 -d 3 -p tcp -e 1040 -c 1 -i 29 -a 1 -x {0.0 4.0 -1 ------- null}
r -t 1.13528 -s 0 -d 2 -p tcp -e 1040 -c 1 -i 30 -a 1 -x {0.0 4.0 5 ------- null}
+ -t 1.13528 -s 2 -d 3 -p tcp -e 1040 -c 1 -i 30 -a 1 -x {0.0 4.0 5 ------- null}
- -t 1.13528 -s 2 -d 3 -p tcp -e 1040 -c 1 -i 30 -a 1 -x {0.0 4.0 5 ------- null}
h -t 1.13528 -s 2 -d 3 -p tcp -e 1040 -c 1 -i 30 -a 1 -x {0.0 4.0 -1 ------- null}
r -t 1.136112 -s 0 -d 2 -p tcp -e 1040 -c 1 -i 31 -a 1 -x {0.0 4.0 6 ------- null}
+ -t 1.136112 -s 2 -d 3 -p tcp -e 1040 -c 1 -i 31 -a 1 -x {0.0 4.0 6 ------- null}
- -t 1.136112 -s 2 -d 3 -p tcp -e 1040 -c 1 -i 31 -a 1 -x {0.0 4.0 6 ------- null}
h -t 1.136112 -s 2 -d 3 -p tcp -e 1040 -c 1 -i 31 -a 1 -x {0.0 4.0 -1 ------- null}
r -t 1.144448 -s 2 -d 3 -p tcp -e 1040 -c 1 -i 28 -a 1 -x {0.0 4.0 3 ------- null}
+ -t 1.144448 -s 3 -d 4 -p tcp -e 1040 -c 1 -i 28 -a 1 -x {0.0 4.0 3 ------- null}
- -t 1.144448 -s 3 -d 4 -p tcp -e 1040 -c 1 -i 28 -a 1 -x {0.0 4.0 3 ------- null}
h -t 1.144448 -s 3 -d 4 -p tcp -e 1040 -c 1 -i 28 -a 1 -x {0.0 4.0 -1 ------- null}
r -t 1.14528 -s 2 -d 3 -p tcp -e 1040 -c 1 -i 29 -a 1 -x {0.0 4.0 4 ------- null}
+ -t 1.14528 -s 3 -d 4 -p tcp -e 1040 -c 1 -i 29 -a 1 -x {0.0 4.0 4 ------- null}
- -t 1.14528 -s 3 -d 4 -p tcp -e 1040 -c 1 -i 29 -a 1 -x {0.0 4.0 4 ------- null}
h -t 1.14528 -s 3 -d 4 -p tcp -e 1040 -c 1 -i 29 -a 1 -x {0.0 4.0 -1 ------- null}
r -t 1.146112 -s 2 -d 3 -p tcp -e 1040 -c 1 -i 30 -a 1 -x {0.0 4.0 5 ------- null}
+ -t 1.146112 -s 3 -d 4 -p tcp -e 1040 -c 1 -i 30 -a 1 -x {0.0 4.0 5 ------- null}
- -t 1.146112 -s 3 -d 4 -p tcp -e 1040 -c 1 -i 30 -a 1 -x {0.0 4.0 5 ------- null}
h -t 1.146112 -s 3 -d 4 -p tcp -e 1040 -c 1 -i 30 -a 1 -x {0.0 4.0 -1 ------- null}
r -t 1.146944 -s 2 -d 3 -p tcp -e 1040 -c 1 -i 31 -a 1 -x {0.0 4.0 6 ------- null}
+ -t 1.146944 -s 3 -d 4 -p tcp -e 1040 -c 1 -i 31 -a 1 -x {0.0 4.0 6 ------- null}
- -t 1.146944 -s 3 -d 4 -p tcp -e 1040 -c 1 -i 31 -a 1 -x {0.0 4.0 6 ------- null}
h -t 1.146944 -s 3 -d 4 -p tcp -e 1040 -c 1 -i 31 -a 1 -x {0.0 4.0 -1 ------- null}
r -t 1.15528 -s 3 -d 4 -p tcp -e 1040 -c 1 -i 28 -a 1 -x {0.0 4.0 3 ------- null}
+ -t 1.15528 -s 4 -d 3 -p ack -e 40 -c 1 -i 32 -a 1 -x {4.0 0.0 3 ------- null}
- -t 1.15528 -s 4 -d 3 -p ack -e 40 -c 1 -i 32 -a 1 -x {4.0 0.0 3 ------- null}
h -t 1.15528 -s 4 -d 3 -p ack -e 40 -c 1 -i 32 -a 1 -x {4.0 0.0 -1 ------- null}
r -t 1.156112 -s 3 -d 4 -p tcp -e 1040 -c 1 -i 29 -a 1 -x {0.0 4.0 4 ------- null}
+ -t 1.156112 -s 4 -d 3 -p ack -e 40 -c 1 -i 33 -a 1 -x {4.0 0.0 4 ------- null}
- -t 1.156112 -s 4 -d 3 -p ack -e 40 -c 1 -i 33 -a 1 -x {4.0 0.0 4 ------- null}
h -t 1.156112 -s 4 -d 3 -p ack -e 40 -c 1 -i 33 -a 1 -x {4.0 0.0 -1 ------- null}
r -t 1.156944 -s 3 -d 4 -p tcp -e 1040 -c 1 -i 30 -a 1 -x {0.0 4.0 5 ------- null}
+ -t 1.156944 -s 4 -d 3 -p ack -e 40 -c 1 -i 34 -a 1 -x {4.0 0.0 5 ------- null}
- -t 1.156944 -s 4 -d 3 -p ack -e 40 -c 1 -i 34 -a 1 -x {4.0 0.0 5 ------- null}
h -t 1.156944 -s 4 -d 3 -p ack -e 40 -c 1 -i 34 -a 1 -x {4.0 0.0 -1 ------- null}
r -t 1.157776 -s 3 -d 4 -p tcp -e 1040 -c 1 -i 31 -a 1 -x {0.0 4.0 6 ------- null}
+ -t 1.157776 -s 4 -d 3 -p ack -e 40 -c 1 -i 35 -a 1 -x {4.0 0.0 6 ------- null}
- -t 1.157776 -s 4 -d 3 -p ack -e 40 -c 1 -i 35 -a 1 -x {4.0 0.0 6 ------- null}
h -t 1.157776 -s 4 -d 3 -p ack -e 40 -c 1 -i 35 -a 1 -x {4.0 0.0 -1 ------- null}
r -t 1.165312 -s 4 -d 3 -p ack -e 40 -c 1 -i 32 -a 1 -x {4.0 0.0 3 ------- null}
+ -t 1.165312 -s 3 -d 2 -p ack -e 40 -c 1 -i 32 -a 1 -x {4.0 0.0 3 ------- null}
- -t 1.165312 -s 3 -d 2 -p ack -e 40 -c 1 -i 32 -a 1 -x {4.0 0.0 3 ------- null}
h -t 1.165312 -s 3 -d 2 -p ack -e 40 -c 1 -i 32 -a 1 -x {4.0 0.0 -1 ------- null}
r -t 1.166144 -s 4 -d 3 -p ack -e 40 -c 1 -i 33 -a 1 -x {4.0 0.0 4 ------- null}
+ -t 1.166144 -s 3 -d 2 -p ack -e 40 -c 1 -i 33 -a 1 -x {4.0 0.0 4 ------- null}
- -t 1.166144 -s 3 -d 2 -p ack -e 40 -c 1 -i 33 -a 1 -x {4.0 0.0 4 ------- null}
h -t 1.166144 -s 3 -d 2 -p ack -e 40 -c 1 -i 33 -a 1 -x {4.0 0.0 -1 ------- null}
r -t 1.166976 -s 4 -d 3 -p ack -e 40 -c 1 -i 34 -a 1 -x {4.0 0.0 5 ------- null}
+ -t 1.166976 -s 3 -d 2 -p ack -e 40 -c 1 -i 34 -a 1 -x {4.0 0.0 5 ------- null}
- -t 1.166976 -s 3 -d 2 -p ack -e 40 -c 1 -i 34 -a 1 -x {4.0 0.0 5 ------- null}
h -t 1.166976 -s 3 -d 2 -p ack -e 40 -c 1 -i 34 -a 1 -x {4.0 0.0 -1 ------- null}
r -t 1.167808 -s 4 -d 3 -p ack -e 40 -c 1 -i 35 -a 1 -x {4.0 0.0 6 ------- null}
+ -t 1.167808 -s 3 -d 2 -p ack -e 40 -c 1 -i 35 -a 1 -x {4.0 0.0 6 ------- null}
- -t 1.167808 -s 3 -d 2 -p ack -e 40 -c 1 -i 35 -a 1 -x {4.0 0.0 6 ------- null}
h -t 1.167808 -s 3 -d 2 -p ack -e 40 -c 1 -i 35 -a 1 -x {4.0 0.0 -1 ------- null}
r -t 1.175344 -s 3 -d 2 -p ack -e 40 -c 1 -i 32 -a 1 -x {4.0 0.0 3 ------- null}
+ -t 1.175344 -s 2 -d 0 -p ack -e 40 -c 1 -i 32 -a 1 -x {4.0 0.0 3 ------- null}
- -t 1.175344 -s 2 -d 0 -p ack -e 40 -c 1 -i 32 -a 1 -x {4.0 0.0 3 ------- null}
h -t 1.175344 -s 2 -d 0 -p ack -e 40 -c 1 -i 32 -a 1 -x {4.0 0.0 -1 ------- null}
r -t 1.176176 -s 3 -d 2 -p ack -e 40 -c 1 -i 33 -a 1 -x {4.0 0.0 4 ------- null}
+ -t 1.176176 -s 2 -d 0 -p ack -e 40 -c 1 -i 33 -a 1 -x {4.0 0.0 4 ------- null}
- -t 1.176176 -s 2 -d 0 -p ack -e 40 -c 1 -i 33 -a 1 -x {4.0 0.0 4 ------- null}
h -t 1.176176 -s 2 -d 0 -p ack -e 40 -c 1 -i 33 -a 1 -x {4.0 0.0 -1 ------- null}
r -t 1.177008 -s 3 -d 2 -p ack -e 40 -c 1 -i 34 -a 1 -x {4.0 0.0 5 ------- null}
+ -t 1.177008 -s 2 -d 0 -p ack -e 40 -c 1 -i 34 -a 1 -x {4.0 0.0 5 ------- null}
- -t 1.177008 -s 2 -d 0 -p ack -e 40 -c 1 -i 34 -a 1 -x {4.0 0.0 5 ------- null}
h -t 1.177008 -s 2 -d 0 -p ack -e 40 -c 1 -i 34 -a 1 -x {4.0 0.0 -1 ------- null}
r -t 1.17784 -s 3 -d 2 -p ack -e 40 -c 1 -i 35 -a 1 -x {4.0 0.0 6 ------- null}
+ -t 1.17784 -s 2 -d 0 -p ack -e 40 -c 1 -i 35 -a 1 -x {4.0 0.0 6 ------- null}
- -t 1.17784 -s 2 -d 0 -p ack -e 40 -c 1 -i 35 -a 1 -x {4.0 0.0 6 ------- null}
h -t 1.17784 -s 2 -d 0 -p ack -e 40 -c 1 -i 35 -a 1 -x {4.0 0.0 -1 ------- null}
r -t 1.185376 -s 2 -d 0 -p ack -e 40 -c 1 -i 32 -a 1 -x {4.0 0.0 3 ------- null}
+ -t 1.185376 -s 0 -d 2 -p tcp -e 1040 -c 1 -i 36 -a 1 -x {0.0 4.0 7 ------- null}
- -t 1.185376 -s 0 -d 2 -p tcp -e 1040 -c 1 -i 36 -a 1 -x {0.0 4.0 7 ------- null}
h -t 1.185376 -s 0 -d 2 -p tcp -e 1040 -c 1 -i 36 -a 1 -x {0.0 4.0 -1 ------- null}
+ -t 1.185376 -s 0 -d 2 -p tcp -e 1040 -c 1 -i 37 -a 1 -x {0.0 4.0 8 ------- null}
r -t 1.186208 -s 2 -d 0 -p ack -e 40 -c 1 -i 33 -a 1 -x {4.0 0.0 4 ------- null}
+ -t 1.186208 -s 0 -d 2 -p tcp -e 1040 -c 1 -i 38 -a 1 -x {0.0 4.0 9 ------- null}
+ -t 1.186208 -s 0 -d 2 -p tcp -e 1040 -c 1 -i 39 -a 1 -x {0.0 4.0 10 ------- null}
- -t 1.186208 -s 0 -d 2 -p tcp -e 1040 -c 1 -i 37 -a 1 -x {0.0 4.0 8 ------- null}
h -t 1.186208 -s 0 -d 2 -p tcp -e 1040 -c 1 -i 37 -a 1 -x {0.0 4.0 -1 ------- null}
r -t 1.18704 -s 2 -d 0 -p ack -e 40 -c 1 -i 34 -a 1 -x {4.0 0.0 5 ------- null}
+ -t 1.18704 -s 0 -d 2 -p tcp -e 1040 -c 1 -i 40 -a 1 -x {0.0 4.0 11 ------- null}
+ -t 1.18704 -s 0 -d 2 -p tcp -e 1040 -c 1 -i 41 -a 1 -x {0.0 4.0 12 ------- null}
- -t 1.18704 -s 0 -d 2 -p tcp -e 1040 -c 1 -i 38 -a 1 -x {0.0 4.0 9 ------- null}
h -t 1.18704 -s 0 -d 2 -p tcp -e 1040 -c 1 -i 38 -a 1 -x {0.0 4.0 -1 ------- null}
r -t 1.187872 -s 2 -d 0 -p ack -e 40 -c 1 -i 35 -a 1 -x {4.0 0.0 6 ------- null}
+ -t 1.187872 -s 0 -d 2 -p tcp -e 1040 -c 1 -i 42 -a 1 -x {0.0 4.0 13 ------- null}
+ -t 1.187872 -s 0 -d 2 -p tcp -e 1040 -c 1 -i 43 -a 1 -x {0.0 4.0 14 ------- null}
- -t 1.187872 -s 0 -d 2 -p tcp -e 1040 -c 1 -i 39 -a 1 -x {0.0 4.0 10 ------- null}
h -t 1.187872 -s 0 -d 2 -p tcp -e 1040 -c 1 -i 39 -a 1 -x {0.0 4.0 -1 ------- null}
- -t 1.188704 -s 0 -d 2 -p tcp -e 1040 -c 1 -i 40 -a 1 -x {0.0 4.0 11 ------- null}
h -t 1.188704 -s 0 -d 2 -p tcp -e 1040 -c 1 -i 40 -a 1 -x {0.0 4.0 -1 ------- null}
- -t 1.189536 -s 0 -d 2 -p tcp -e 1040 -c 1 -i 41 -a 1 -x {0.0 4.0 12 ------- null}
h -t 1.189536 -s 0 -d 2 -p tcp -e 1040 -c 1 -i 41 -a 1 -x {0.0 4.0 -1 ------- null}
- -t 1.190368 -s 0 -d 2 -p tcp -e 1040 -c 1 -i 42 -a 1 -x {0.0 4.0 13 ------- null}
h -t 1.190368 -s 0 -d 2 -p tcp -e 1040 -c 1 -i 42 -a 1 -x {0.0 4.0 -1 ------- null}
- -t 1.1912 -s 0 -d 2 -p tcp -e 1040 -c 1 -i 43 -a 1 -x {0.0 4.0 14 ------- null}
h -t 1.1912 -s 0 -d 2 -p tcp -e 1040 -c 1 -i 43 -a 1 -x {0.0 4.0 -1 ------- null}
r -t 1.196208 -s 0 -d 2 -p tcp -e 1040 -c 1 -i 36 -a 1 -x {0.0 4.0 7 ------- null}
+ -t 1.196208 -s 2 -d 3 -p tcp -e 1040 -c 1 -i 36 -a 1 -x {0.0 4.0 7 ------- null}
- -t 1.196208 -s 2 -d 3 -p tcp -e 1040 -c 1 -i 36 -a 1 -x {0.0 4.0 7 ------- null}
h -t 1.196208 -s 2 -d 3 -p tcp -e 1040 -c 1 -i 36 -a 1 -x {0.0 4.0 -1 ------- null}
r -t 1.19704 -s 0 -d 2 -p tcp -e 1040 -c 1 -i 37 -a 1 -x {0.0 4.0 8 ------- null}
+ -t 1.19704 -s 2 -d 3 -p tcp -e 1040 -c 1 -i 37 -a 1 -x {0.0 4.0 8 ------- null}
- -t 1.19704 -s 2 -d 3 -p tcp -e 1040 -c 1 -i 37 -a 1 -x {0.0 4.0 8 ------- null}
h -t 1.19704 -s 2 -d 3 -p tcp -e 1040 -c 1 -i 37 -a 1 -x {0.0 4.0 -1 ------- null}
r -t 1.197872 -s 0 -d 2 -p tcp -e 1040 -c 1 -i 38 -a 1 -x {0.0 4.0 9 ------- null}
+ -t 1.197872 -s 2 -d 3 -p tcp -e 1040 -c 1 -i 38 -a 1 -x {0.0 4.0 9 ------- null}
- -t 1.197872 -s 2 -d 3 -p tcp -e 1040 -c 1 -i 38 -a 1 -x {0.0 4.0 9 ------- null}
h -t 1.197872 -s 2 -d 3 -p tcp -e 1040 -c 1 -i 38 -a 1 -x {0.0 4.0 -1 ------- null}
r -t 1.198704 -s 0 -d 2 -p tcp -e 1040 -c 1 -i 39 -a 1 -x {0.0 4.0 10 ------- null}
+ -t 1.198704 -s 2 -d 3 -p tcp -e 1040 -c 1 -i 39 -a 1 -x {0.0 4.0 10 ------- null}
- -t 1.198704 -s 2 -d 3 -p tcp -e 1040 -c 1 -i 39 -a 1 -x {0.0 4.0 10 ------- null}
h -t 1.198704 -s 2 -d 3 -p tcp -e 1040 -c 1 -i 39 -a 1 -x {0.0 4.0 -1 ------- null}
r -t 1.199536 -s 0 -d 2 -p tcp -e 1040 -c 1 -i 40 -a 1 -x {0.0 4.0 11 ------- null}
+ -t 1.199536 -s 2 -d 3 -p tcp -e 1040 -c 1 -i 40 -a 1 -x {0.0 4.0 11 ------- null}
- -t 1.199536 -s 2 -d 3 -p tcp -e 1040 -c 1 -i 40 -a 1 -x {0.0 4.0 11 ------- null}
h -t 1.199536 -s 2 -d 3 -p tcp -e 1040 -c 1 -i 40 -a 1 -x {0.0 4.0 -1 ------- null}
r -t 1.200368 -s 0 -d 2 -p tcp -e 1040 -c 1 -i 41 -a 1 -x {0.0 4.0 12 ------- null}
+ -t 1.200368 -s 2 -d 3 -p tcp -e 1040 -c 1 -i 41 -a 1 -x {0.0 4.0 12 ------- null}
- -t 1.200368 -s 2 -d 3 -p tcp -e 1040 -c 1 -i 41 -a 1 -x {0.0 4.0 12 ------- null}
h -t 1.200368 -s 2 -d 3 -p tcp -e 1040 -c 1 -i 41 -a 1 -x {0.0 4.0 -1 ------- null}
r -t 1.2012 -s 0 -d 2 -p tcp -e 1040 -c 1 -i 42 -a 1 -x {0.0 4.0 13 ------- null}
+ -t 1.2012 -s 2 -d 3 -p tcp -e 1040 -c 1 -i 42 -a 1 -x {0.0 4.0 13 ------- null}
- -t 1.2012 -s 2 -d 3 -p tcp -e 1040 -c 1 -i 42 -a 1 -x {0.0 4.0 13 ------- null}
h -t 1.2012 -s 2 -d 3 -p tcp -e 1040 -c 1 -i 42 -a 1 -x {0.0 4.0 -1 ------- null}
r -t 1.202032 -s 0 -d 2 -p tcp -e 1040 -c 1 -i 43 -a 1 -x {0.0 4.0 14 ------- null}
+ -t 1.202032 -s 2 -d 3 -p tcp -e 1040 -c 1 -i 43 -a 1 -x {0.0 4.0 14 ------- null}
- -t 1.202032 -s 2 -d 3 -p tcp -e 1040 -c 1 -i 43 -a 1 -x {0.0 4.0 14 ------- null}
h -t 1.202032 -s 2 -d 3 -p tcp -e 1040 -c 1 -i 43 -a 1 -x {0.0 4.0 -1 ------- null}
r -t 1.20704 -s 2 -d 3 -p tcp -e 1040 -c 1 -i 36 -a 1 -x {0.0 4.0 7 ------- null}
+ -t 1.20704 -s 3 -d 4 -p tcp -e 1040 -c 1 -i 36 -a 1 -x {0.0 4.0 7 ------- null}
- -t 1.20704 -s 3 -d 4 -p tcp -e 1040 -c 1 -i 36 -a 1 -x {0.0 4.0 7 ------- null}
h -t 1.20704 -s 3 -d 4 -p tcp -e 1040 -c 1 -i 36 -a 1 -x {0.0 4.0 -1 ------- null}
r -t 1.207872 -s 2 -d 3 -p tcp -e 1040 -c 1 -i 37 -a 1 -x {0.0 4.0 8 ------- null}
+ -t 1.207872 -s 3 -d 4 -p tcp -e 1040 -c 1 -i 37 -a 1 -x {0.0 4.0 8 ------- null}
- -t 1.207872 -s 3 -d 4 -p tcp -e 1040 -c 1 -i 37 -a 1 -x {0.0 4.0 8 ------- null}
h -t 1.207872 -s 3 -d 4 -p tcp -e 1040 -c 1 -i 37 -a 1 -x {0.0 4.0 -1 ------- null}
r -t 1.208704 -s 2 -d 3 -p tcp -e 1040 -c 1 -i 38 -a 1 -x {0.0 4.0 9 ------- null}
+ -t 1.208704 -s 3 -d 4 -p tcp -e 1040 -c 1 -i 38 -a 1 -x {0.0 4.0 9 ------- null}
- -t 1.208704 -s 3 -d 4 -p tcp -e 1040 -c 1 -i 38 -a 1 -x {0.0 4.0 9 ------- null}
h -t 1.208704 -s 3 -d 4 -p tcp -e 1040 -c 1 -i 38 -a 1 -x {0.0 4.0 -1 ------- null}
r -t 1.209536 -s 2 -d 3 -p tcp -e 1040 -c 1 -i 39 -a 1 -x {0.0 4.0 10 ------- null}
+ -t 1.209536 -s 3 -d 4 -p tcp -e 1040 -c 1 -i 39 -a 1 -x {0.0 4.0 10 ------- null}
- -t 1.209536 -s 3 -d 4 -p tcp -e 1040 -c 1 -i 39 -a 1 -x {0.0 4.0 10 ------- null}
h -t 1.209536 -s 3 -d 4 -p tcp -e 1040 -c 1 -i 39 -a 1 -x {0.0 4.0 -1 ------- null}
r -t 1.210368 -s 2 -d 3 -p tcp -e 1040 -c 1 -i 40 -a 1 -x {0.0 4.0 11 ------- null}
+ -t 1.210368 -s 3 -d 4 -p tcp -e 1040 -c 1 -i 40 -a 1 -x {0.0 4.0 11 ------- null}
- -t 1.210368 -s 3 -d 4 -p tcp -e 1040 -c 1 -i 40 -a 1 -x {0.0 4.0 11 ------- null}
h -t 1.210368 -s 3 -d 4 -p tcp -e 1040 -c 1 -i 40 -a 1 -x {0.0 4.0 -1 ------- null}
r -t 1.2112 -s 2 -d 3 -p tcp -e 1040 -c 1 -i 41 -a 1 -x {0.0 4.0 12 ------- null}
+ -t 1.2112 -s 3 -d 4 -p tcp -e 1040 -c 1 -i 41 -a 1 -x {0.0 4.0 12 ------- null}
- -t 1.2112 -s 3 -d 4 -p tcp -e 1040 -c 1 -i 41 -a 1 -x {0.0 4.0 12 ------- null}
h -t 1.2112 -s 3 -d 4 -p tcp -e 1040 -c 1 -i 41 -a 1 -x {0.0 4.0 -1 ------- null}
r -t 1.212032 -s 2 -d 3 -p tcp -e 1040 -c 1 -i 42 -a 1 -x {0.0 4.0 13 ------- null}
+ -t 1.212032 -s 3 -d 4 -p tcp -e 1040 -c 1 -i 42 -a 1 -x {0.0 4.0 13 ------- null}