V -t * -v 1.0a5 -a 0
A -t * -n 1 -p 0 -o 0x7fffffff -c 30 -a 1
A -t * -h 1 -m 1073741823 -s 0
c -t * -i 2 -n red
n -t * -a 4 -s 4 -S UP -v circle -c black -i black
n -t * -a 0 -s 0 -S UP -v circle -c black -i black
n -t * -a 1 -s 1 -S UP -v circle -c black -i black
n -t * -a 2 -s 2 -S UP -v circle -c black -i black
n -t * -a 3 -s 3 -S UP -v circle -c black -i black
l -t * -s 1 -d 0 -S UP -r 10000000 -D 0.014999999999999999 -c black -o right-down
l -t * -s 2 -d 0 -S UP -r 10000000 -D 0.014999999999999999 -c black -o left-down
l -t * -s 3 -d 0 -S UP -r 10000000 -D 0.014999999999999999 -c black -o right-up
l -t * -s 4 -d 0 -S UP -r 10000000 -D 0.014999999999999999 -c black -o left-up
+ -t 0 -s 1 -d 0 -p tcp -e 40 -c 2 -i 0 -a 2 -x {1.0 4.0 0 ------- null}
- -t 0 -s 1 -d 0 -p tcp -e 40 -c 2 -i 0 -a 2 -x {1.0 4.0 0 ------- null}
h -t 0 -s 1 -d 0 -p tcp -e 40 -c 2 -i 0 -a 2 -x {1.0 4.0 -1 ------- null}
+ -t 0 -s 2 -d 0 -p tcp -e 40 -c 2 -i 1 -a 2 -x {2.0 4.1 0 ------- null}
- -t 0 -s 2 -d 0 -p tcp -e 40 -c 2 -i 1 -a 2 -x {2.0 4.1 0 ------- null}
h -t 0 -s 2 -d 0 -p tcp -e 40 -c 2 -i 1 -a 2 -x {2.0 4.1 -1 ------- null}
+ -t 0 -s 3 -d 0 -p tcp -e 40 -c 2 -i 2 -a 2 -x {3.0 4.2 0 ------- null}
- -t 0 -s 3 -d 0 -p tcp -e 40 -c 2 -i 2 -a 2 -x {3.0 4.2 0 ------- null}
h -t 0 -s 3 -d 0 -p tcp -e 40 -c 2 -i 2 -a 2 -x {3.0 4.2 -1 ------- null}
r -t 0.015032 -s 1 -d 0 -p tcp -e 40 -c 2 -i 0 -a 2 -x {1.0 4.0 0 ------- null}
+ -t 0.015032 -s 0 -d 4 -p tcp -e 40 -c 2 -i 0 -a 2 -x {1.0 4.0 0 ------- null}
- -t 0.015032 -s 0 -d 4 -p tcp -e 40 -c 2 -i 0 -a 2 -x {1.0 4.0 0 ------- null}
h -t 0.015032 -s 0 -d 4 -p tcp -e 40 -c 2 -i 0 -a 2 -x {1.0 4.0 -1 ------- null}
r -t 0.015032 -s 2 -d 0 -p tcp -e 40 -c 2 -i 1 -a 2 -x {2.0 4.1 0 ------- null}
+ -t 0.015032 -s 0 -d 4 -p tcp -e 40 -c 2 -i 1 -a 2 -x {2.0 4.1 0 ------- null}
r -t 0.015032 -s 3 -d 0 -p tcp -e 40 -c 2 -i 2 -a 2 -x {3.0 4.2 0 ------- null}
+ -t 0.015032 -s 0 -d 4 -p tcp -e 40 -c 2 -i 2 -a 2 -x {3.0 4.2 0 ------- null}
- -t 0.015064 -s 0 -d 4 -p tcp -e 40 -c 2 -i 1 -a 2 -x {2.0 4.1 0 ------- null}
h -t 0.015064 -s 0 -d 4 -p tcp -e 40 -c 2 -i 1 -a 2 -x {2.0 4.1 -1 ------- null}
- -t 0.015096 -s 0 -d 4 -p tcp -e 40 -c 2 -i 2 -a 2 -x {3.0 4.2 0 ------- null}
h -t 0.015096 -s 0 -d 4 -p tcp -e 40 -c 2 -i 2 -a 2 -x {3.0 4.2 -1 ------- null}
r -t 0.030064 -s 0 -d 4 -p tcp -e 40 -c 2 -i 0 -a 2 -x {1.0 4.0 0 ------- null}
+ -t 0.030064 -s 4 -d 0 -p ack -e 40 -c 2 -i 3 -a 2 -x {4.0 1.0 0 ------- null}
- -t 0.030064 -s 4 -d 0 -p ack -e 40 -c 2 -i 3 -a 2 -x {4.0 1.0 0 ------- null}
h -t 0.030064 -s 4 -d 0 -p ack -e 40 -c 2 -i 3 -a 2 -x {4.0 1.0 -1 ------- null}
r -t 0.030096 -s 0 -d 4 -p tcp -e 40 -c 2 -i 1 -a 2 -x {2.0 4.1 0 ------- null}
+ -t 0.030096 -s 4 -d 0 -p ack -e 40 -c 2 -i 4 -a 2 -x {4.1 2.0 0 ------- null}
- -t 0.030096 -s 4 -d 0 -p ack -e 40 -c 2 -i 4 -a 2 -x {4.1 2.0 0 ------- null}
h -t 0.030096 -s 4 -d 0 -p ack -e 40 -c 2 -i 4 -a 2 -x {4.1 2.0 -1 ------- null}
r -t 0.030128 -s 0 -d 4 -p tcp -e 40 -c 2 -i 2 -a 2 -x {3.0 4.2 0 ------- null}
+ -t 0.030128 -s 4 -d 0 -p ack -e 40 -c 2 -i 5 -a 2 -x {4.2 3.0 0 ------- null}
- -t 0.030128 -s 4 -d 0 -p ack -e 40 -c 2 -i 5 -a 2 -x {4.2 3.0 0 ------- null}
h -t 0.030128 -s 4 -d 0 -p ack -e 40 -c 2 -i 5 -a 2 -x {4.2 3.0 -1 ------- null}
r -t 0.045096 -s 4 -d 0 -p ack -e 40 -c 2 -i 3 -a 2 -x {4.0 1.0 0 ------- null}
+ -t 0.045096 -s 0 -d 1 -p ack -e 40 -c 2 -i 3 -a 2 -x {4.0 1.0 0 ------- null}
- -t 0.045096 -s 0 -d 1 -p ack -e 40 -c 2 -i 3 -a 2 -x {4.0 1.0 0 ------- null}
h -t 0.045096 -s 0 -d 1 -p ack -e 40 -c 2 -i 3 -a 2 -x {4.0 1.0 -1 ------- null}
r -t 0.045128 -s 4 -d 0 -p ack -e 40 -c 2 -i 4 -a 2 -x {4.1 2.0 0 ------- null}
+ -t 0.045128 -s 0 -d 2 -p ack -e 40 -c 2 -i 4 -a 2 -x {4.1 2.0 0 ------- null}
- -t 0.045128 -s 0 -d 2 -p ack -e 40 -c 2 -i 4 -a 2 -x {4.1 2.0 0 ------- null}
h -t 0.045128 -s 0 -d 2 -p ack -e 40 -c 2 -i 4 -a 2 -x {4.1 2.0 -1 ------- null}
r -t 0.04516 -s 4 -d 0 -p ack -e 40 -c 2 -i 5 -a 2 -x {4.2 3.0 0 ------- null}
+ -t 0.04516 -s 0 -d 3 -p ack -e 40 -c 2 -i 5 -a 2 -x {4.2 3.0 0 ------- null}
- -t 0.04516 -s 0 -d 3 -p ack -e 40 -c 2 -i 5 -a 2 -x {4.2 3.0 0 ------- null}
h -t 0.04516 -s 0 -d 3 -p ack -e 40 -c 2 -i 5 -a 2 -x {4.2 3.0 -1 ------- null}
r -t 0.060128 -s 0 -d 1 -p ack -e 40 -c 2 -i 3 -a 2 -x {4.0 1.0 0 ------- null}
+ -t 0.060128 -s 1 -d 0 -p tcp -e 1040 -c 2 -i 6 -a 2 -x {1.0 4.0 1 ------- null}
- -t 0.060128 -s 1 -d 0 -p tcp -e 1040 -c 2 -i 6 -a 2 -x {1.0 4.0 1 ------- null}
h -t 0.060128 -s 1 -d 0 -p tcp -e 1040 -c 2 -i 6 -a 2 -x {1.0 4.0 -1 ------- null}
+ -t 0.060128 -s 1 -d 0 -p tcp -e 1040 -c 2 -i 7 -a 2 -x {1.0 4.0 2 ------- null}
r -t 0.06016 -s 0 -d 2 -p ack -e 40 -c 2 -i 4 -a 2 -x {4.1 2.0 0 ------- null}
+ -t 0.06016 -s 2 -d 0 -p tcp -e 1040 -c 2 -i 8 -a 2 -x {2.0 4.1 1 ------- null}
- -t 0.06016 -s 2 -d 0 -p tcp -e 1040 -c 2 -i 8 -a 2 -x {2.0 4.1 1 ------- null}
h -t 0.06016 -s 2 -d 0 -p tcp -e 1040 -c 2 -i 8 -a 2 -x {2.0 4.1 -1 ------- null}
+ -t 0.06016 -s 2 -d 0 -p tcp -e 1040 -c 2 -i 9 -a 2 -x {2.0 4.1 2 ------- null}
r -t 0.060192 -s 0 -d 3 -p ack -e 40 -c 2 -i 5 -a 2 -x {4.2 3.0 0 ------- null}
+ -t 0.060192 -s 3 -d 0 -p tcp -e 1040 -c 2 -i 10 -a 2 -x {3.0 4.2 1 ------- null}
- -t 0.060192 -s 3 -d 0 -p tcp -e 1040 -c 2 -i 10 -a 2 -x {3.0 4.2 1 ------- null}
h -t 0.060192 -s 3 -d 0 -p tcp -e 1040 -c 2 -i 10 -a 2 -x {3.0 4.2 -1 ------- null}
+ -t 0.060192 -s 3 -d 0 -p tcp -e 1040 -c 2 -i 11 -a 2 -x {3.0 4.2 2 ------- null}
- -t 0.06096 -s 1 -d 0 -p tcp -e 1040 -c 2 -i 7 -a 2 -x {1.0 4.0 2 ------- null}
h -t 0.06096 -s 1 -d 0 -p tcp -e 1040 -c 2 -i 7 -a 2 -x {1.0 4.0 -1 ------- null}
- -t 0.060992 -s 2 -d 0 -p tcp -e 1040 -c 2 -i 9 -a 2 -x {2.0 4.1 2 ------- null}
h -t 0.060992 -s 2 -d 0 -p tcp -e 1040 -c 2 -i 9 -a 2 -x {2.0 4.1 -1 ------- null}
- -t 0.061024 -s 3 -d 0 -p tcp -e 1040 -c 2 -i 11 -a 2 -x {3.0 4.2 2 ------- null}
h -t 0.061024 -s 3 -d 0 -p tcp -e 1040 -c 2 -i 11 -a 2 -x {3.0 4.2 -1 ------- null}
r -t 0.07596 -s 1 -d 0 -p tcp -e 1040 -c 2 -i 6 -a 2 -x {1.0 4.0 1 ------- null}
+ -t 0.07596 -s 0 -d 4 -p tcp -e 1040 -c 2 -i 6 -a 2 -x {1.0 4.0 1 ------- null}
- -t 0.07596 -s 0 -d 4 -p tcp -e 1040 -c 2 -i 6 -a 2 -x {1.0 4.0 1 ------- null}
h -t 0.07596 -s 0 -d 4 -p tcp -e 1040 -c 2 -i 6 -a 2 -x {1.0 4.0 -1 ------- null}
r -t 0.075992 -s 2 -d 0 -p tcp -e 1040 -c 2 -i 8 -a 2 -x {2.0 4.1 1 ------- null}
+ -t 0.075992 -s 0 -d 4 -p tcp -e 1040 -c 2 -i 8 -a 2 -x {2.0 4.1 1 ------- null}
r -t 0.076024 -s 3 -d 0 -p tcp -e 1040 -c 2 -i 10 -a 2 -x {3.0 4.2 1 ------- null}
+ -t 0.076024 -s 0 -d 4 -p tcp -e 1040 -c 2 -i 10 -a 2 -x {3.0 4.2 1 ------- null}
r -t 0.076792 -s 1 -d 0 -p tcp -e 1040 -c 2 -i 7 -a 2 -x {1.0 4.0 2 ------- null}
+ -t 0.076792 -s 0 -d 4 -p tcp -e 1040 -c 2 -i 7 -a 2 -x {1.0 4.0 2 ------- null}
- -t 0.076792 -s 0 -d 4 -p tcp -e 1040 -c 2 -i 8 -a 2 -x {2.0 4.1 1 ------- null}
h -t 0.076792 -s 0 -d 4 -p tcp -e 1040 -c 2 -i 8 -a 2 -x {2.0 4.1 -1 ------- null}
r -t 0.076824 -s 2 -d 0 -p tcp -e 1040 -c 2 -i 9 -a 2 -x {2.0 4.1 2 ------- null}
+ -t 0.076824 -s 0 -d 4 -p tcp -e 1040 -c 2 -i 9 -a 2 -x {2.0 4.1 2 ------- null}
r -t 0.076856 -s 3 -d 0 -p tcp -e 1040 -c 2 -i 11 -a 2 -x {3.0 4.2 2 ------- null}
+ -t 0.076856 -s 0 -d 4 -p tcp -e 1040 -c 2 -i 11 -a 2 -x {3.0 4.2 2 ------- null}
- -t 0.077624 -s 0 -d 4 -p tcp -e 1040 -c 2 -i 10 -a 2 -x {3.0 4.2 1 ------- null}
h -t 0.077624 -s 0 -d 4 -p tcp -e 1040 -c 2 -i 10 -a 2 -x {3.0 4.2 -1 ------- null}
- -t 0.078456 -s 0 -d 4 -p tcp -e 1040 -c 2 -i 7 -a 2 -x {1.0 4.0 2 ------- null}
h -t 0.078456 -s 0 -d 4 -p tcp -e 1040 -c 2 -i 7 -a 2 -x {1.0 4.0 -1 ------- null}
- -t 0.079288 -s 0 -d 4 -p tcp -e 1040 -c 2 -i 9 -a 2 -x {2.0 4.1 2 ------- null}
h -t 0.079288 -s 0 -d 4 -p tcp -e 1040 -c 2 -i 9 -a 2 -x {2.0 4.1 -1 ------- null}
- -t 0.08012 -s 0 -d 4 -p tcp -e 1040 -c 2 -i 11 -a 2 -x {3.0 4.2 2 ------- null}
h -t 0.08012 -s 0 -d 4 -p tcp -e 1040 -c 2 -i 11 -a 2 -x {3.0 4.2 -1 ------- null}
r -t 0.091792 -s 0 -d 4 -p tcp -e 1040 -c 2 -i 6 -a 2 -x {1.0 4.0 1 ------- null}
+ -t 0.091792 -s 4 -d 0 -p ack -e 40 -c 2 -i 12 -a 2 -x {4.0 1.0 1 ------- null}
- -t 0.091792 -s 4 -d 0 -p ack -e 40 -c 2 -i 12 -a 2 -x {4.0 1.0 1 ------- null}
h -t 0.091792 -s 4 -d 0 -p ack -e 40 -c 2 -i 12 -a 2 -x {4.0 1.0 -1 ------- null}
r -t 0.092624 -s 0 -d 4 -p tcp -e 1040 -c 2 -i 8 -a 2 -x {2.0 4.1 1 ------- null}
+ -t 0.092624 -s 4 -d 0 -p ack -e 40 -c 2 -i 13 -a 2 -x {4.1 2.0 1 ------- null}
- -t 0.092624 -s 4 -d 0 -p ack -e 40 -c 2 -i 13 -a 2 -x {4.1 2.0 1 ------- null}
h -t 0.092624 -s 4 -d 0 -p ack -e 40 -c 2 -i 13 -a 2 -x {4.1 2.0 -1 ------- null}
r -t 0.093456 -s 0 -d 4 -p tcp -e 1040 -c 2 -i 10 -a 2 -x {3.0 4.2 1 ------- null}
+ -t 0.093456 -s 4 -d 0 -p ack -e 40 -c 2 -i 14 -a 2 -x {4.2 3.0 1 ------- null}
- -t 0.093456 -s 4 -d 0 -p ack -e 40 -c 2 -i 14 -a 2 -x {4.2 3.0 1 ------- null}
h -t 0.093456 -s 4 -d 0 -p ack -e 40 -c 2 -i 14 -a 2 -x {4.2 3.0 -1 ------- null}
r -t 0.094288 -s 0 -d 4 -p tcp -e 1040 -c 2 -i 7 -a 2 -x {1.0 4.0 2 ------- null}
+ -t 0.094288 -s 4 -d 0 -p ack -e 40 -c 2 -i 15 -a 2 -x {4.0 1.0 2 ------- null}
- -t 0.094288 -s 4 -d 0 -p ack -e 40 -c 2 -i 15 -a 2 -x {4.0 1.0 2 ------- null}
h -t 0.094288 -s 4 -d 0 -p ack -e 40 -c 2 -i 15 -a 2 -x {4.0 1.0 -1 ------- null}
r -t 0.09512 -s 0 -d 4 -p tcp -e 1040 -c 2 -i 9 -a 2 -x {2.0 4.1 2 ------- null}
+ -t 0.09512 -s 4 -d 0 -p ack -e 40 -c 2 -i 16 -a 2 -x {4.1 2.0 2 ------- null}
- -t 0.09512 -s 4 -d 0 -p ack -e 40 -c 2 -i 16 -a 2 -x {4.1 2.0 2 ------- null}
h -t 0.09512 -s 4 -d 0 -p ack -e 40 -c 2 -i 16 -a 2 -x {4.1 2.0 -1 ------- null}
r -t 0.095952 -s 0 -d 4 -p tcp -e 1040 -c 2 -i 11 -a 2 -x {3.0 4.2 2 ------- null}
+ -t 0.095952 -s 4 -d 0 -p ack -e 40 -c 2 -i 17 -a 2 -x {4.2 3.0 2 ------- null}
- -t 0.095952 -s 4 -d 0 -p ack -e 40 -c 2 -i 17 -a 2 -x {4.2 3.0 2 ------- null}
h -t 0.095952 -s 4 -d 0 -p ack -e 40 -c 2 -i 17 -a 2 -x {4.2 3.0 -1 ------- null}
r -t 0.106824 -s 4 -d 0 -p ack -e 40 -c 2 -i 12 -a 2 -x {4.0 1.0 1 ------- null}
+ -t 0.106824 -s 0 -d 1 -p ack -e 40 -c 2 -i 12 -a 2 -x {4.0 1.0 1 ------- null}
- -t 0.106824 -s 0 -d 1 -p ack -e 40 -c 2 -i 12 -a 2 -x {4.0 1.0 1 ------- null}
h -t 0.106824 -s 0 -d 1 -p ack -e 40 -c 2 -i 12 -a 2 -x {4.0 1.0 -1 ------- null}
r -t 0.107656 -s 4 -d 0 -p ack -e 40 -c 2 -i 13 -a 2 -x {4.1 2.0 1 ------- null}
+ -t 0.107656 -s 0 -d 2 -p ack -e 40 -c 2 -i 13 -a 2 -x {4.1 2.0 1 ------- null}
- -t 0.107656 -s 0 -d 2 -p ack -e 40 -c 2 -i 13 -a 2 -x {4.1 2.0 1 ------- null}
h -t 0.107656 -s 0 -d 2 -p ack -e 40 -c 2 -i 13 -a 2 -x {4.1 2.0 -1 ------- null}
r -t 0.108488 -s 4 -d 0 -p ack -e 40 -c 2 -i 14 -a 2 -x {4.2 3.0 1 ------- null}
+ -t 0.108488 -s 0 -d 3 -p ack -e 40 -c 2 -i 14 -a 2 -x {4.2 3.0 1 ------- null}
- -t 0.108488 -s 0 -d 3 -p ack -e 40 -c 2 -i 14 -a 2 -x {4.2 3.0 1 ------- null}
h -t 0.108488 -s 0 -d 3 -p ack -e 40 -c 2 -i 14 -a 2 -x {4.2 3.0 -1 ------- null}
r -t 0.10932 -s 4 -d 0 -p ack -e 40 -c 2 -i 15 -a 2 -x {4.0 1.0 2 ------- null}
+ -t 0.10932 -s 0 -d 1 -p ack -e 40 -c 2 -i 15 -a 2 -x {4.0 1.0 2 ------- null}
- -t 0.10932 -s 0 -d 1 -p ack -e 40 -c 2 -i 15 -a 2 -x {4.0 1.0 2 ------- null}
h -t 0.10932 -s 0 -d 1 -p ack -e 40 -c 2 -i 15 -a 2 -x {4.0 1.0 -1 ------- null}
r -t 0.110152 -s 4 -d 0 -p ack -e 40 -c 2 -i 16 -a 2 -x {4.1 2.0 2 ------- null}
+ -t 0.110152 -s 0 -d 2 -p ack -e 40 -c 2 -i 16 -a 2 -x {4.1 2.0 2 ------- null}
- -t 0.110152 -s 0 -d 2 -p ack -e 40 -c 2 -i 16 -a 2 -x {4.1 2.0 2 ------- null}
h -t 0.110152 -s 0 -d 2 -p ack -e 40 -c 2 -i 16 -a 2 -x {4.1 2.0 -1 ------- null}
r -t 0.110984 -s 4 -d 0 -p ack -e 40 -c 2 -i 17 -a 2 -x {4.2 3.0 2 ------- null}
+ -t 0.110984 -s 0 -d 3 -p ack -e 40 -c 2 -i 17 -a 2 -x {4.2 3.0 2 ------- null}
- -t 0.110984 -s 0 -d 3 -p ack -e 40 -c 2 -i 17 -a 2 -x {4.2 3.0 2 ------- null}
h -t 0.110984 -s 0 -d 3 -p ack -e 40 -c 2 -i 17 -a 2 -x {4.2 3.0 -1 ------- null}
r -t 0.121856 -s 0 -d 1 -p ack -e 40 -c 2 -i 12 -a 2 -x {4.0 1.0 1 ------- null}
+ -t 0.121856 -s 1 -d 0 -p tcp -e 1040 -c 2 -i 18 -a 2 -x {1.0 4.0 3 ------- null}
- -t 0.121856 -s 1 -d 0 -p tcp -e 1040 -c 2 -i 18 -a 2 -x {1.0 4.0 3 ------- null}
h -t 0.121856 -s 1 -d 0 -p tcp -e 1040 -c 2 -i 18 -a 2 -x {1.0 4.0 -1 ------- null}
+ -t 0.121856 -s 1 -d 0 -p tcp -e 1040 -c 2 -i 19 -a 2 -x {1.0 4.0 4 ------- null}
r -t 0.122688 -s 0 -d 2 -p ack -e 40 -c 2 -i 13 -a 2 -x {4.1 2.0 1 ------- null}
+ -t 0.122688 -s 2 -d 0 -p tcp -e 1040 -c 2 -i 20 -a 2 -x {2.0 4.1 3 ------- null}
- -t 0.122688 -s 2 -d 0 -p tcp -e 1040 -c 2 -i 20 -a 2 -x {2.0 4.1 3 ------- null}
h -t 0.122688 -s 2 -d 0 -p tcp -e 1040 -c 2 -i 20 -a 2 -x {2.0 4.1 -1 ------- null}
+ -t 0.122688 -s 2 -d 0 -p tcp -e 1040 -c 2 -i 21 -a 2 -x {2.0 4.1 4 ------- null}
- -t 0.122688 -s 1 -d 0 -p tcp -e 1040 -c 2 -i 19 -a 2 -x {1.0 4.0 4 ------- null}
h -t 0.122688 -s 1 -d 0 -p tcp -e 1040 -c 2 -i 19 -a 2 -x {1.0 4.0 -1 ------- null}
r -t 0.12352 -s 0 -d 3 -p ack -e 40 -c 2 -i 14 -a 2 -x {4.2 3.0 1 ------- null}
+ -t 0.12352 -s 3 -d 0 -p tcp -e 1040 -c 2 -i 22 -a 2 -x {3.0 4.2 3 ------- null}
- -t 0.12352 -s 3 -d 0 -p tcp -e 1040 -c 2 -i 22 -a 2 -x {3.0 4.2 3 ------- null}
h -t 0.12352 -s 3 -d 0 -p tcp -e 1040 -c 2 -i 22 -a 2 -x {3.0 4.2 -1 ------- null}
+ -t 0.12352 -s 3 -d 0 -p tcp -e 1040 -c 2 -i 23 -a 2 -x {3.0 4.2 4 ------- null}
- -t 0.12352 -s 2 -d 0 -p tcp -e 1040 -c 2 -i 21 -a 2 -x {2.0 4.1 4 ------- null}
h -t 0.12352 -s 2 -d 0 -p tcp -e 1040 -c 2 -i 21 -a 2 -x {2.0 4.1 -1 ------- null}
r -t 0.124352 -s 0 -d 1 -p ack -e 40 -c 2 -i 15 -a 2 -x {4.0 1.0 2 ------- null}
+ -t 0.124352 -s 1 -d 0 -p tcp -e 1040 -c 2 -i 24 -a 2 -x {1.0 4.0 5 ------- null}
- -t 0.124352 -s 1 -d 0 -p tcp -e 1040 -c 2 -i 24 -a 2 -x {1.0 4.0 5 ------- null}
h -t 0.124352 -s 1 -d 0 -p tcp -e 1040 -c 2 -i 24 -a 2 -x {1.0 4.0 -1 ------- null}
+ -t 0.124352 -s 1 -d 0 -p tcp -e 1040 -c 2 -i 25 -a 2 -x {1.0 4.0 6 ------- null}
- -t 0.124352 -s 3 -d 0 -p tcp -e 1040 -c 2 -i 23 -a 2 -x {3.0 4.2 4 ------- null}
h -t 0.124352 -s 3 -d 0 -p tcp -e 1040 -c 2 -i 23 -a 2 -x {3.0 4.2 -1 ------- null}
r -t 0.125184 -s 0 -d 2 -p ack -e 40 -c 2 -i 16 -a 2 -x {4.1 2.0 2 ------- null}
+ -t 0.125184 -s 2 -d 0 -p tcp -e 1040 -c 2 -i 26 -a 2 -x {2.0 4.1 5 ------- null}
- -t 0.125184 -s 2 -d 0 -p tcp -e 1040 -c 2 -i 26 -a 2 -x {2.0 4.1 5 ------- null}
h -t 0.125184 -s 2 -d 0 -p tcp -e 1040 -c 2 -i 26 -a 2 -x {2.0 4.1 -1 ------- null}
+ -t 0.125184 -s 2 -d 0 -p tcp -e 1040 -c 2 -i 27 -a 2 -x {2.0 4.1 6 ------- null}
- -t 0.125184 -s 1 -d 0 -p tcp -e 1040 -c 2 -i 25 -a 2 -x {1.0 4.0 6 ------- null}
h -t 0.125184 -s 1 -d 0 -p tcp -e 1040 -c 2 -i 25 -a 2 -x {1.0 4.0 -1 ------- null}
r -t 0.126016 -s 0 -d 3 -p ack -e 40 -c 2 -i 17 -a 2 -x {4.2 3.0 2 ------- null}
+ -t 0.126016 -s 3 -d 0 -p tcp -e 1040 -c 2 -i 28 -a 2 -x {3.0 4.2 5 ------- null}
- -t 0.126016 -s 3 -d 0 -p tcp -e 1040 -c 2 -i 28 -a 2 -x {3.0 4.2 5 ------- null}
h -t 0.126016 -s 3 -d 0 -p tcp -e 1040 -c 2 -i 28 -a 2 -x {3.0 4.2 -1 ------- null}
+ -t 0.126016 -s 3 -d 0 -p tcp -e 1040 -c 2 -i 29 -a 2 -x {3.0 4.2 6 ------- null}
- -t 0.126016 -s 2 -d 0 -p tcp -e 1040 -c 2 -i 27 -a 2 -x {2.0 4.1 6 ------- null}
h -t 0.126016 -s 2 -d 0 -p tcp -e 1040 -c 2 -i 27 -a 2 -x {2.0 4.1 -1 ------- null}
- -t 0.126848 -s 3 -d 0 -p tcp -e 1040 -c 2 -i 29 -a 2 -x {3.0 4.2 6 ------- null}
h -t 0.126848 -s 3 -d 0 -p tcp -e 1040 -c 2 -i 29 -a 2 -x {3.0 4.2 -1 ------- null}
r -t 0.137688 -s 1 -d 0 -p tcp -e 1040 -c 2 -i 18 -a 2 -x {1.0 4.0 3 ------- null}
+ -t 0.137688 -s 0 -d 4 -p tcp -e 1040 -c 2 -i 18 -a 2 -x {1.0 4.0 3 ------- null}
- -t 0.137688 -s 0 -d 4 -p tcp -e 1040 -c 2 -i 18 -a 2 -x {1.0 4.0 3 ------- null}
h -t 0.137688 -s 0 -d 4 -p tcp -e 1040 -c 2 -i 18 -a 2 -x {1.0 4.0 -1 ------- null}
r -t 0.13852 -s 2 -d 0 -p tcp -e 1040 -c 2 -i 20 -a 2 -x {2.0 4.1 3 ------- null}
+ -t 0.13852 -s 0 -d 4 -p tcp -e 1040 -c 2 -i 20 -a 2 -x {2.0 4.1 3 ------- null}
r -t 0.13852 -s 1 -d 0 -p tcp -e 1040 -c 2 -i 19 -a 2 -x {1.0 4.0 4 ------- null}
+ -t 0.13852 -s 0 -d 4 -p tcp -e 1040 -c 2 -i 19 -a 2 -x {1.0 4.0 4 ------- null}
- -t 0.13852 -s 0 -d 4 -p tcp -e 1040 -c 2 -i 20 -a 2 -x {2.0 4.1 3 ------- null}
h -t 0.13852 -s 0 -d 4 -p tcp -e 1040 -c 2 -i 20 -a 2 -x {2.0 4.1 -1 ------- null}
r -t 0.139352 -s 3 -d 0 -p tcp -e 1040 -c 2 -i 22 -a 2 -x {3.0 4.2 3 ------- null}
+ -t 0.139352 -s 0 -d 4 -p tcp -e 1040 -c 2 -i 22 -a 2 -x {3.0 4.2 3 ------- null}
r -t 0.139352 -s 2 -d 0 -p tcp -e 1040 -c 2 -i 21 -a 2 -x {2.0 4.1 4 ------- null}
+ -t 0.139352 -s 0 -d 4 -p tcp -e 1040 -c 2 -i 21 -a 2 -x {2.0 4.1 4 ------- null}
- -t 0.139352 -s 0 -d 4 -p tcp -e 1040 -c 2 -i 19 -a 2 -x {1.0 4.0 4 ------- null}
h -t 0.139352 -s 0 -d 4 -p tcp -e 1040 -c 2 -i 19 -a 2 -x {1.0 4.0 -1 ------- null}
r -t 0.140184 -s 1 -d 0 -p tcp -e 1040 -c 2 -i 24 -a 2 -x {1.0 4.0 5 ------- null}
+ -t 0.140184 -s 0 -d 4 -p tcp -e 1040 -c 2 -i 24 -a 2 -x {1.0 4.0 5 ------- null}
r -t 0.140184 -s 3 -d 0 -p tcp -e 1040 -c 2 -i 23 -a 2 -x {3.0 4.2 4 ------- null}
+ -t 0.140184 -s 0 -d 4 -p tcp -e 1040 -c 2 -i 23 -a 2 -x {3.0 4.2 4 ------- null}
- -t 0.140184 -s 0 -d 4 -p tcp -e 1040 -c 2 -i 22 -a 2 -x {3.0 4.2 3 ------- null}
h -t 0.140184 -s 0 -d 4 -p tcp -e 1040 -c 2 -i 22 -a 2 -x {3.0 4.2 -1 ------- null}
r -t 0.141016 -s 2 -d 0 -p tcp -e 1040 -c 2 -i 26 -a 2 -x {2.0 4.1 5 ------- null}
+ -t 0.141016 -s 0 -d 4 -p tcp -e 1040 -c 2 -i 26 -a 2 -x {2.0 4.1 5 ------- null}
- -t 0.141016 -s 0 -d 4 -p tcp -e 1040 -c 2 -i 21 -a 2 -x {2.0 4.1 4 ------- null}
h -t 0.141016 -s 0 -d 4 -p tcp -e 1040 -c 2 -i 21 -a 2 -x {2.0 4.1 -1 ------- null}
r -t 0.141016 -s 1 -d 0 -p tcp -e 1040 -c 2 -i 25 -a 2 -x {1.0 4.0 6 ------- null}
+ -t 0.141016 -s 0 -d 4 -p tcp -e 1040 -c 2 -i 25 -a 2 -x {1.0 4.0 6 ------- null}
r -t 0.141848 -s 3 -d 0 -p tcp -e 1040 -c 2 -i 28 -a 2 -x {3.0 4.2 5 ------- null}
+ -t 0.141848 -s 0 -d 4 -p tcp -e 1040 -c 2 -i 28 -a 2 -x {3.0 4.2 5 ------- null}
r -t 0.141848 -s 2 -d 0 -p tcp -e 1040 -c 2 -i 27 -a 2 -x {2.0 4.1 6 ------- null}
+ -t 0.141848 -s 0 -d 4 -p tcp -e 1040 -c 2 -i 27 -a 2 -x {2.0 4.1 6 ------- null}
- -t 0.141848 -s 0 -d 4 -p tcp -e 1040 -c 2 -i 24 -a 2 -x {1.0 4.0 5 ------- null}
h -t 0.141848 -s 0 -d 4 -p tcp -e 1040 -c 2 -i 24 -a 2 -x {1.0 4.0 -1 ------- null}
r -t 0.14268 -s 3 -d 0 -p tcp -e 1040 -c 2 -i 29 -a 2 -x {3.0 4.2 6 ------- null}
+ -t 0.14268 -s 0 -d 4 -p tcp -e 1040 -c 2 -i 29 -a 2 -x {3.0 4.2 6 ------- null}
- -t 0.14268 -s 0 -d 4 -p tcp -e 1040 -c 2 -i 23 -a 2 -x {3.0 4.2 4 ------- null}
h -t 0.14268 -s 0 -d 4 -p tcp -e 1040 -c 2 -i 23 -a 2 -x {3.0 4.2 -1 ------- null}
- -t 0.143512 -s 0 -d 4 -p tcp -e 1040 -c 2 -i 26 -a 2 -x {2.0 4.1 5 ------- null}
h -t 0.143512 -s 0 -d 4 -p tcp -e 1040 -c 2 -i 26 -a 2 -x {2.0 4.1 -1 ------- null}
- -t 0.144344 -s 0 -d 4 -p tcp -e 1040 -c 2 -i 25 -a 2 -x {1.0 4.0 6 ------- null}
h -t 0.144344 -s 0 -d 4 -p tcp -e 1040 -c 2 -i 25 -a 2 -x {1.0 4.0 -1 ------- null}
- -t 0.145176 -s 0 -d 4 -p tcp -e 1040 -c 2 -i 28 -a 2 -x {3.0 4.2 5 ------- null}
h -t 0.145176 -s 0 -d 4 -p tcp -e 1040 -c 2 -i 28 -a 2 -x {3.0 4.2 -1 ------- null}
- -t 0.146008 -s 0 -d 4 -p tcp -e 1040 -c 2 -i 27 -a 2 -x {2.0 4.1 6 ------- null}
h -t 0.146008 -s 0 -d 4 -p tcp -e 1040 -c 2 -i 27 -a 2 -x {2.0 4.1 -1 ------- null}
- -t 0.14684 -s 0 -d 4 -p tcp -e 1040 -c 2 -i 29 -a 2 -x {3.0 4.2 6 ------- null}
h -t 0.14684 -s 0 -d 4 -p tcp -e 1040 -c 2 -i 29 -a 2 -x {3.0 4.2 -1 ------- null}
r -t 0.15352 -s 0 -d 4 -p tcp -e 1040 -c 2 -i 18 -a 2 -x {1.0 4.0 3 ------- null}
+ -t 0.15352 -s 4 -d 0 -p ack -e 40 -c 2 -i 30 -a 2 -x {4.0 1.0 3 ------- null}
- -t 0.15352 -s 4 -d 0 -p ack -e 40 -c 2 -i 30 -a 2 -x {4.0 1.0 3 ------- null}
h -t 0.15352 -s 4 -d 0 -p ack -e 40 -c 2 -i 30 -a 2 -x {4.0 1.0 -1 ------- null}
r -t 0.154352 -s 0 -d 4 -p tcp -e 1040 -c 2 -i 20 -a 2 -x {2.0 4.1 3 ------- null}
+ -t 0.154352 -s 4 -d 0 -p ack -e 40 -c 2 -i 31 -a 2 -x {4.1 2.0 3 ------- null}
- -t 0.154352 -s 4 -d 0 -p ack -e 40 -c 2 -i 31 -a 2 -x {4.1 2.0 3 ------- null}
h -t 0.154352 -s 4 -d 0 -p ack -e 40 -c 2 -i 31 -a 2 -x {4.1 2.0 -1 ------- null}
r -t 0.155184 -s 0 -d 4 -p tcp -e 1040 -c 2 -i 19 -a 2 -x {1.0 4.0 4 ------- null}
+ -t 0.155184 -s 4 -d 0 -p ack -e 40 -c 2 -i 32 -a 2 -x {4.0 1.0 4 ------- null}
- -t 0.155184 -s 4 -d 0 -p ack -e 40 -c 2 -i 32 -a 2 -x {4.0 1.0 4 ------- null}
h -t 0.155184 -s 4 -d 0 -p ack -e 40 -c 2 -i 32 -a 2 -x {4.0 1.0 -1 ------- null}
r -t 0.156016 -s 0 -d 4 -p tcp -e 1040 -c 2 -i 22 -a 2 -x {3.0 4.2 3 ------- null}
+ -t 0.156016 -s 4 -d 0 -p ack -e 40 -c 2 -i 33 -a 2 -x {4.2 3.0 3 ------- null}
- -t 0.156016 -s 4 -d 0 -p ack -e 40 -c 2 -i 33 -a 2 -x {4.2 3.0 3 ------- null}
h -t 0.156016 -s 4 -d 0 -p ack -e 40 -c 2 -i 33 -a 2 -x {4.2 3.0 -1 ------- null}
r -t 0.156848 -s 0 -d 4 -p tcp -e 1040 -c 2 -i 21 -a 2 -x {2.0 4.1 4 ------- null}
+ -t 0.156848 -s 4 -d 0 -p ack -e 40 -c 2 -i 34 -a 2 -x {4.1 2.0 4 ------- null}
- -t 0.156848 -s 4 -d 0 -p ack -e 40 -c 2 -i 34 -a 2 -x {4.1 2.0 4 ------- null}
h -t 0.156848 -s 4 -d 0 -p ack -e 40 -c 2 -i 34 -a 2 -x {4.1 2.0 -1 ------- null}
r -t 0.15768 -s 0 -d 4 -p tcp -e 1040 -c 2 -i 24 -a 2 -x {1.0 4.0 5 ------- null}
+ -t 0.15768 -s 4 -d 0 -p ack -e 40 -c 2 -i 35 -a 2 -x {4.0 1.0 5 ------- null}
- -t 0.15768 -s 4 -d 0 -p ack -e 40 -c 2 -i 35 -a 2 -x {4.0 1.0 5 ------- null}
h -t 0.15768 -s 4 -d 0 -p ack -e 40 -c 2 -i 35 -a 2 -x {4.0 1.0 -1 ------- null}
r -t 0.158512 -s 0 -d 4 -p tcp -e 1040 -c 2 -i 23 -a 2 -x {3.0 4.2 4 ------- null}
+ -t 0.158512 -s 4 -d 0 -p ack -e 40 -c 2 -i 36 -a 2 -x {4.2 3.0 4 ------- null}
- -t 0.158512 -s 4 -d 0 -p ack -e 40 -c 2 -i 36 -a 2 -x {4.2 3.0 4 ------- null}
h -t 0.158512 -s 4 -d 0 -p ack -e 40 -c 2 -i 36 -a 2 -x {4.2 3.0 -1 ------- null}
r -t 0.159344 -s 0 -d 4 -p tcp -e 1040 -c 2 -i 26 -a 2 -x {2.0 4.1 5 ------- null}
+ -t 0.159344 -s 4 -d 0 -p ack -e 40 -c 2 -i 37 -a 2 -x {4.1 2.0 5 ------- null}
- -t 0.159344 -s 4 -d 0 -p ack -e 40 -c 2 -i 37 -a 2 -x {4.1 2.0 5 ------- null}
h -t 0.159344 -s 4 -d 0 -p ack -e 40 -c 2 -i 37 -a 2 -x {4.1 2.0 -1 ------- null}
r -t 0.160176 -s 0 -d 4 -p tcp -e 1040 -c 2 -i 25 -a 2 -x {1.0 4.0 6 ------- null}
+ -t 0.160176 -s 4 -d 0 -p ack -e 40 -c 2 -i 38 -a 2 -x {4.0 1.0 6 ------- null}
- -t 0.160176 -s 4 -d 0 -p ack -e 40 -c 2 -i 38 -a 2 -x {4.0 1.0 6 ------- null}
h -t 0.160176 -s 4 -d 0 -p ack -e 40 -c 2 -i 38 -a 2 -x {4.0 1.0 -1 ------- null}
r -t 0.161008 -s 0 -d 4 -p tcp -e 1040 -c 2 -i 28 -a 2 -x {3.0 4.2 5 ------- null}
+ -t 0.161008 -s 4 -d 0 -p ack -e 40 -c 2 -i 39 -a 2 -x {4.2 3.0 5 ------- null}
- -t 0.161008 -s 4 -d 0 -p ack -e 40 -c 2 -i 39 -a 2 -x {4.2 3.0 5 ------- null}
h -t 0.161008 -s 4 -d 0 -p ack -e 40 -c 2 -i 39 -a 2 -x {4.2 3.0 -1 ------- null}
r -t 0.16184 -s 0 -d 4 -p tcp -e 1040 -c 2 -i 27 -a 2 -x {2.0 4.1 6 ------- null}
+ -t 0.16184 -s 4 -d 0 -p ack -e 40 -c 2 -i 40 -a 2 -x {4.1 2.0 6 ------- null}
- -t 0.16184 -s 4 -d 0 -p ack -e 40 -c 2 -i 40 -a 2 -x {4.1 2.0 6 ------- null}
h -t 0.16184 -s 4 -d 0 -p ack -e 40 -c 2 -i 40 -a 2 -x {4.1 2.0 -1 ------- null}
r -t 0.162672 -s 0 -d 4 -p tcp -e 1040 -c 2 -i 29 -a 2 -x {3.0 4.2 6 ------- null}
+ -t 0.162672 -s 4 -d 0 -p ack -e 40 -c 2 -i 41 -a 2 -x {4.2 3.0 6 ------- null}
- -t 0.162672 -s 4 -d 0 -p ack -e 40 -c 2 -i 41 -a 2 -x {4.2 3.0 6 ------- null}
h -t 0.162672 -s 4 -d 0 -p ack -e 40 -c 2 -i 41 -a 2 -x {4.2 3.0 -1 ------- null}
r -t 0.168552 -s 4 -d 0 -p ack -e 40 -c 2 -i 30 -a 2 -x {4.0 1.0 3 ------- null}
+ -t 0.168552 -s 0 -d 1 -p ack -e 40 -c 2 -i 30 -a 2 -x {4.0 1.0 3 ------- null}
- -t 0.168552 -s 0 -d 1 -p ack -e 40 -c 2 -i 30 -a 2 -x {4.0 1.0 3 ------- null}
h -t 0.168552 -s 0 -d 1 -p ack -e 40 -c 2 -i 30 -a 2 -x {4.0 1.0 -1 ------- null}
r -t 0.169384 -s 4 -d 0 -p ack -e 40 -c 2 -i 31 -a 2 -x {4.1 2.0 3 ------- null}
+ -t 0.169384 -s 0 -d 2 -p ack -e 40 -c 2 -i 31 -a 2 -x {4.1 2.0 3 ------- null}
- -t 0.169384 -s 0 -d 2 -p ack -e 40 -c 2 -i 31 -a 2 -x {4.1 2.0 3 ------- null}
h -t 0.169384 -s 0 -d 2 -p ack -e 40 -c 2 -i 31 -a 2 -x {4.1 2.0 -1 ------- null}
r -t 0.170216 -s 4 -d 0 -p ack -e 40 -c 2 -i 32 -a 2 -x {4.0 1.0 4 ------- null}
+ -t 0.170216 -s 0 -d 1 -p ack -e 40 -c 2 -i 32 -a 2 -x {4.0 1.0 4 ------- null}
- -t 0.170216 -s 0 -d 1 -p ack -e 40 -c 2 -i 32 -a 2 -x {4.0 1.0 4 ------- null}
h -t 0.170216 -s 0 -d 1 -p ack -e 40 -c 2 -i 32 -a 2 -x {4.0 1.0 -1 ------- null}
r -t 0.171048 -s 4 -d 0 -p ack -e 40 -c 2 -i 33 -a 2 -x {4.2 3.0 3 ------- null}
+ -t 0.171048 -s 0 -d 3 -p ack -e 40 -c 2 -i 33 -a 2 -x {4.2 3.0 3 ------- null}
- -t 0.171048 -s 0 -d 3 -p ack -e 40 -c 2 -i 33 -a 2 -x {4.2 3.0 3 ------- null}
h -t 0.171048 -s 0 -d 3 -p ack -e 40 -c 2 -i 33 -a 2 -x {4.2 3.0 -1 ------- null}
r -t 0.17188 -s 4 -d 0 -p ack -e 40 -c 2 -i 34 -a 2 -x {4.1 2.0 4 ------- null}
+ -t 0.17188 -s 0 -d 2 -p ack -e 40 -c 2 -i 34 -a 2 -x {4.1 2.0 4 ------- null}
- -t 0.17188 -s 0 -d 2 -p ack -e 40 -c 2 -i 34 -a 2 -x {4.1 2.0 4 ------- null}
h -t 0.17188 -s 0 -d 2 -p ack -e 40 -c 2 -i 34 -a 2 -x {4.1 2.0 -1 ------- null}
r -t 0.172712 -s 4 -d 0 -p ack -e 40 -c 2 -i 35 -a 2 -x {4.0 1.0 5 ------- null}
+ -t 0.172712 -s 0 -d 1 -p ack -e 40 -c 2 -i 35 -a 2 -x {4.0 1.0 5 ------- null}
- -t 0.172712 -s 0 -d 1 -p ack -e 40 -c 2 -i 35 -a 2 -x {4.0 1.0 5 ------- null}
h -t 0.172712 -s 0 -d 1 -p ack -e 40 -c 2 -i 35 -a 2 -x {4.0 1.0 -1 ------- null}
r -t 0.173544 -s 4 -d 0 -p ack -e 40 -c 2 -i 36 -a 2 -x {4.2 3.0 4 ------- null}
+ -t 0.173544 -s 0 -d 3 -p ack -e 40 -c 2 -i 36 -a 2 -x {4.2 3.0 4 ------- null}
- -t 0.173544 -s 0 -d 3 -p ack -e 40 -c 2 -i 36 -a 2 -x {4.2 3.0 4 ------- null}
h -t 0.173544 -s 0 -d 3 -p ack -e 40 -c 2 -i 36 -a 2 -x {4.2 3.0 -1 ------- null}
r -t 0.174376 -s 4 -d 0 -p ack -e 40 -c 2 -i 37 -a 2 -x {4.1 2.0 5 ------- null}
+ -t 0.174376 -s 0 -d 2 -p ack -e 40 -c 2 -i 37 -a 2 -x {4.1 2.0 5 ------- null}
- -t 0.174376 -s 0 -d 2 -p ack -e 40 -c 2 -i 37 -a 2 -x {4.1 2.0 5 ------- null}
h -t 0.174376 -s 0 -d 2 -p ack -e 40 -c 2 -i 37 -a 2 -x {4.1 2.0 -1 ------- null}
r -t 0.175208 -s 4 -d 0 -p ack -e 40 -c 2 -i 38 -a 2 -x {4.0 1.0 6 ------- null}
+ -t 0.175208 -s 0 -d 1 -p ack -e 40 -c 2 -i 38 -a 2 -x {4.0 1.0 6 ------- null}
- -t 0.175208 -s 0 -d 1 -p ack -e 40 -c 2 -i 38 -a 2 -x {4.0 1.0 6 ------- null}
h -t 0.175208 -s 0 -d 1 -p ack -e 40 -c 2 -i 38 -a 2 -x {4.0 1.0 -1 ------- null}
r -t 0.17604 -s 4 -d 0 -p ack -e 40 -c 2 -i 39 -a 2 -x {4.2 3.0 5 ------- null}
+ -t 0.17604 -s 0 -d 3 -p ack -e 40 -c 2 -i 39 -a 2 -x {4.2 3.0 5 ------- null}
- -t 0.17604 -s 0 -d 3 -p ack -e 40 -c 2 -i 39 -a 2 -x {4.2 3.0 5 ------- null}
h -t 0.17604 -s 0 -d 3 -p ack -e 40 -c 2 -i 39 -a 2 -x {4.2 3.0 -1 ------- null}
r -t 0.176872 -s 4 -d 0 -p ack -e 40 -c 2 -i 40 -a 2 -x {4.1 2.0 6 ------- null}
+ -t 0.176872 -s 0 -d 2 -p ack -e 40 -c 2 -i 40 -a 2 -x {4.1 2.0 6 ------- null}
- -t 0.176872 -s 0 -d 2 -p ack -e 40 -c 2 -i 40 -a 2 -x {4.1 2.0 6 ------- null}
h -t 0.176872 -s 0 -d 2 -p ack -e 40 -c 2 -i 40 -a 2 -x {4.1 2.0 -1 ------- null}
r -t 0.177704 -s 4 -d 0 -p ack -e 40 -c 2 -i 41 -a 2 -x {4.2 3.0 6 ------- null}
+ -t 0.177704 -s 0 -d 3 -p ack -e 40 -c 2 -i 41 -a 2 -x {4.2 3.0 6 ------- null}
- -t 0.177704 -s 0 -d 3 -p ack -e 40 -c 2 -i 41 -a 2 -x {4.2 3.0 6 ------- null}
h -t 0.177704 -s 0 -d 3 -p ack -e 40 -c 2 -i 41 -a 2 -x {4.2 3.0 -1 ------- null}
r -t 0.183584 -s 0 -d 1 -p ack -e 40 -c 2 -i 30 -a 2 -x {4.0 1.0 3 ------- null}
+ -t 0.183584 -s 1 -d 0 -p tcp -e 1040 -c 2 -i 42 -a 2 -x {1.0 4.0 7 ------- null}
- -t 0.183584 -s 1 -d 0 -p tcp -e 1040 -c 2 -i 42 -a 2 -x {1.0 4.0 7 ------- null}
h -t 0.183584 -s 1 -d 0 -p tcp -e 1040 -c 2 -i 42 -a 2 -x {1.0 4.0 -1 ------- null}
+ -t 0.183584 -s 1 -d 0 -p tcp -e 1040 -c 2 -i 43 -a 2 -x {1.0 4.0 8 ------- null}
r -t 0.184416 -s 0 -d 2 -p ack -e 40 -c 2 -i 31 -a 2 -x {4.1 2.0 3 ------- null}
+ -t 0.184416 -s 2 -d 0 -p tcp -e 1040 -c 2 -i 44 -a 2 -x {2.0 4.1 7 ------- null}
- -t 0.184416 -s 2 -d 0 -p tcp -e 1040 -c 2 -i 44 -a 2 -x {2.0 4.1 7 ------- null}
h -t 0.184416 -s 2 -d 0 -p tcp -e 1040 -c 2 -i 44 -a 2 -x {2.0 4.1 -1 ------- null}
+ -t 0.184416 -s 2 -d 0 -p tcp -e 1040 -c 2 -i 45 -a 2 -x {2.0 4.1 8 ------- null}
- -t 0.184416 -s 1 -d 0 -p tcp -e 1040 -c 2 -i 43 -a 2 -x {1.0 4.0 8 ------- null}
h -t 0.184416 -s 1 -d 0 -p tcp -e 1040 -c 2 -i 43 -a 2 -x {1.0 4.0 -1 ------- null}
r -t 0.185248 -s 0 -d 1 -p ack -e 40 -c 2 -i 32 -a 2 -x {4.0 1.0 4 ------- null}
+ -t 0.185248 -s 1 -d 0 -p tcp -e 1040 -c 2 -i 46 -a 2 -x {1.0 4.0 9 ------- null}
+ -t 0.185248 -s 1 -d 0 -p tcp -e 1040 -c 2 -i 47 -a 2 -x {1.0 4.0 10 ------- null}
- -t 0.185248 -s 2 -d 0 -p tcp -e 1040 -c 2 -i 45 -a 2 -x {2.0 4.1 8 ------- null}
h -t 0.185248 -s 2 -d 0 -p tcp -e 1040 -c 2 -i 45 -a 2 -x {2.0 4.1 -1 ------- null}
- -t 0.185248 -s 1 -d 0 -p tcp -e 1040 -c 2 -i 46 -a 2 -x {1.0 4.0 9 ------- null}
h -t 0.185248 -s 1 -d 0 -p tcp -e 1040 -c 2 -i 46 -a 2 -x {1.0 4.0 -1 ------- null}
r -t 0.18608 -s 0 -d 3 -p ack -e 40 -c 2 -i 33 -a 2 -x {4.2 3.0 3 ------- null}
+ -t 0.18608 -s 3 -d 0 -p tcp -e 1040 -c 2 -i 48 -a 2 -x {3.0 4.2 7 ------- null}
- -t 0.18608 -s 3 -d 0 -p tcp -e 1040 -c 2 -i 48 -a 2 -x {3.0 4.2 7 ------- null}
h -t 0.18608 -s 3 -d 0 -p tcp -e 1040 -c 2 -i 48 -a 2 -x {3.0 4.2 -1 ------- null}
+ -t 0.18608 -s 3 -d 0 -p tcp -e 1040 -c 2 -i 49 -a 2 -x {3.0 4.2 8 ------- null}
- -t 0.18608 -s 1 -d 0 -p tcp -e 1040 -c 2 -i 47 -a 2 -x {1.0 4.0 10 ------- null}
h -t 0.18608 -s 1 -d 0 -p tcp -e 1040 -c 2 -i 47 -a 2 -x {1.0 4.0 -1 ------- null}
r -t 0.186912 -s 0 -d 2 -p ack -e 40 -c 2 -i 34 -a 2 -x {4.1 2.0 4 ------- null}
+ -t 0.186912 -s 2 -d 0 -p tcp -e 1040 -c 2 -i 50 -a 2 -x {2.0 4.1 9 ------- null}
- -t 0.186912 -s 2 -d 0 -p tcp -e 1040 -c 2 -i 50 -a 2 -x {2.0 4.1 9 ------- null}
h -t 0.186912 -s 2 -d 0 -p tcp -e 1040 -c 2 -i 50 -a 2 -x {2.0 4.1 -1 ------- null}
+ -t 0.186912 -s 2 -d 0 -p tcp -e 1040 -c 2 -i 51 -a 2 -x {2.0 4.1 10 ------- null}
- -t 0.186912 -s 3 -d 0 -p tcp -e 1040 -c 2 -i 49 -a 2 -x {3.0 4.2 8 ------- null}
h -t 0.186912 -s 3 -d 0 -p tcp -e 1040 -c 2 -i 49 -a 2 -x {3.0 4.2 -1 ------- null}
r -t 0.187744 -s 0 -d 1 -p ack -e 40 -c 2 -i 35 -a 2 -x {4.0 1.0 5 ------- null}
+ -t 0.187744 -s 1 -d 0 -p tcp -e 1040 -c 2 -i 52 -a 2 -x {1.0 4.0 11 ------- null}