V -t * -v 1.0a5 -a 0
A -t * -n 1 -p 0 -o 0x7fffffff -c 30 -a 1
A -t * -h 1 -m 1073741823 -s 0
c -t * -i 2 -n red
n -t * -a 4 -s 4 -S UP -v circle -c black -i black
n -t * -a 0 -s 0 -S UP -v circle -c black -i black
n -t * -a 1 -s 1 -S UP -v circle -c black -i black
n -t * -a 2 -s 2 -S UP -v circle -c black -i black
n -t * -a 3 -s 3 -S UP -v circle -c black -i black
l -t * -s 0 -d 1 -S UP -r 10000000 -D 0.01 -c black -o left-down
l -t * -s 0 -d 2 -S UP -r 10000000 -D 0.01 -c black -o right-down
l -t * -s 1 -d 3 -S UP -r 10000000 -D 0.01 -c black -o left-down
l -t * -s 1 -d 4 -S UP -r 10000000 -D 0.01 -c black -o right-down
+ -t 0 -s 0 -d 1 -p tcp -e 40 -c 2 -i 0 -a 2 -x {0.0 1.0 0 ------- null}
- -t 0 -s 0 -d 1 -p tcp -e 40 -c 2 -i 0 -a 2 -x {0.0 1.0 0 ------- null}
h -t 0 -s 0 -d 1 -p tcp -e 40 -c 2 -i 0 -a 2 -x {0.0 1.0 -1 ------- null}
+ -t 0 -s 0 -d 2 -p tcp -e 40 -c 2 -i 1 -a 2 -x {0.1 2.0 0 ------- null}
- -t 0 -s 0 -d 2 -p tcp -e 40 -c 2 -i 1 -a 2 -x {0.1 2.0 0 ------- null}
h -t 0 -s 0 -d 2 -p tcp -e 40 -c 2 -i 1 -a 2 -x {0.1 2.0 -1 ------- null}
+ -t 0 -s 1 -d 3 -p tcp -e 40 -c 2 -i 2 -a 2 -x {1.1 3.0 0 ------- null}
- -t 0 -s 1 -d 3 -p tcp -e 40 -c 2 -i 2 -a 2 -x {1.1 3.0 0 ------- null}
h -t 0 -s 1 -d 3 -p tcp -e 40 -c 2 -i 2 -a 2 -x {1.1 3.0 -1 ------- null}
+ -t 0 -s 1 -d 4 -p tcp -e 40 -c 2 -i 3 -a 2 -x {1.2 4.0 0 ------- null}
- -t 0 -s 1 -d 4 -p tcp -e 40 -c 2 -i 3 -a 2 -x {1.2 4.0 0 ------- null}
h -t 0 -s 1 -d 4 -p tcp -e 40 -c 2 -i 3 -a 2 -x {1.2 4.0 -1 ------- null}
r -t 0.010032 -s 0 -d 1 -p tcp -e 40 -c 2 -i 0 -a 2 -x {0.0 1.0 0 ------- null}
+ -t 0.010032 -s 1 -d 0 -p ack -e 40 -c 2 -i 4 -a 2 -x {1.0 0.0 0 ------- null}
- -t 0.010032 -s 1 -d 0 -p ack -e 40 -c 2 -i 4 -a 2 -x {1.0 0.0 0 ------- null}
h -t 0.010032 -s 1 -d 0 -p ack -e 40 -c 2 -i 4 -a 2 -x {1.0 0.0 -1 ------- null}
r -t 0.010032 -s 0 -d 2 -p tcp -e 40 -c 2 -i 1 -a 2 -x {0.1 2.0 0 ------- null}
+ -t 0.010032 -s 2 -d 0 -p ack -e 40 -c 2 -i 5 -a 2 -x {2.0 0.1 0 ------- null}
- -t 0.010032 -s 2 -d 0 -p ack -e 40 -c 2 -i 5 -a 2 -x {2.0 0.1 0 ------- null}
h -t 0.010032 -s 2 -d 0 -p ack -e 40 -c 2 -i 5 -a 2 -x {2.0 0.1 -1 ------- null}
r -t 0.010032 -s 1 -d 3 -p tcp -e 40 -c 2 -i 2 -a 2 -x {1.1 3.0 0 ------- null}
+ -t 0.010032 -s 3 -d 1 -p ack -e 40 -c 2 -i 6 -a 2 -x {3.0 1.1 0 ------- null}
- -t 0.010032 -s 3 -d 1 -p ack -e 40 -c 2 -i 6 -a 2 -x {3.0 1.1 0 ------- null}
h -t 0.010032 -s 3 -d 1 -p ack -e 40 -c 2 -i 6 -a 2 -x {3.0 1.1 -1 ------- null}
r -t 0.010032 -s 1 -d 4 -p tcp -e 40 -c 2 -i 3 -a 2 -x {1.2 4.0 0 ------- null}
+ -t 0.010032 -s 4 -d 1 -p ack -e 40 -c 2 -i 7 -a 2 -x {4.0 1.2 0 ------- null}
- -t 0.010032 -s 4 -d 1 -p ack -e 40 -c 2 -i 7 -a 2 -x {4.0 1.2 0 ------- null}
h -t 0.010032 -s 4 -d 1 -p ack -e 40 -c 2 -i 7 -a 2 -x {4.0 1.2 -1 ------- null}
r -t 0.020064 -s 1 -d 0 -p ack -e 40 -c 2 -i 4 -a 2 -x {1.0 0.0 0 ------- null}
+ -t 0.020064 -s 0 -d 1 -p tcp -e 1040 -c 2 -i 8 -a 2 -x {0.0 1.0 1 ------- null}
- -t 0.020064 -s 0 -d 1 -p tcp -e 1040 -c 2 -i 8 -a 2 -x {0.0 1.0 1 ------- null}
h -t 0.020064 -s 0 -d 1 -p tcp -e 1040 -c 2 -i 8 -a 2 -x {0.0 1.0 -1 ------- null}
+ -t 0.020064 -s 0 -d 1 -p tcp -e 1040 -c 2 -i 9 -a 2 -x {0.0 1.0 2 ------- null}
r -t 0.020064 -s 2 -d 0 -p ack -e 40 -c 2 -i 5 -a 2 -x {2.0 0.1 0 ------- null}
+ -t 0.020064 -s 0 -d 2 -p tcp -e 1040 -c 2 -i 10 -a 2 -x {0.1 2.0 1 ------- null}
- -t 0.020064 -s 0 -d 2 -p tcp -e 1040 -c 2 -i 10 -a 2 -x {0.1 2.0 1 ------- null}
h -t 0.020064 -s 0 -d 2 -p tcp -e 1040 -c 2 -i 10 -a 2 -x {0.1 2.0 -1 ------- null}
+ -t 0.020064 -s 0 -d 2 -p tcp -e 1040 -c 2 -i 11 -a 2 -x {0.1 2.0 2 ------- null}
r -t 0.020064 -s 3 -d 1 -p ack -e 40 -c 2 -i 6 -a 2 -x {3.0 1.1 0 ------- null}
+ -t 0.020064 -s 1 -d 3 -p tcp -e 1040 -c 2 -i 12 -a 2 -x {1.1 3.0 1 ------- null}
- -t 0.020064 -s 1 -d 3 -p tcp -e 1040 -c 2 -i 12 -a 2 -x {1.1 3.0 1 ------- null}
h -t 0.020064 -s 1 -d 3 -p tcp -e 1040 -c 2 -i 12 -a 2 -x {1.1 3.0 -1 ------- null}
+ -t 0.020064 -s 1 -d 3 -p tcp -e 1040 -c 2 -i 13 -a 2 -x {1.1 3.0 2 ------- null}
r -t 0.020064 -s 4 -d 1 -p ack -e 40 -c 2 -i 7 -a 2 -x {4.0 1.2 0 ------- null}
+ -t 0.020064 -s 1 -d 4 -p tcp -e 1040 -c 2 -i 14 -a 2 -x {1.2 4.0 1 ------- null}
- -t 0.020064 -s 1 -d 4 -p tcp -e 1040 -c 2 -i 14 -a 2 -x {1.2 4.0 1 ------- null}
h -t 0.020064 -s 1 -d 4 -p tcp -e 1040 -c 2 -i 14 -a 2 -x {1.2 4.0 -1 ------- null}
+ -t 0.020064 -s 1 -d 4 -p tcp -e 1040 -c 2 -i 15 -a 2 -x {1.2 4.0 2 ------- null}
- -t 0.020896 -s 0 -d 1 -p tcp -e 1040 -c 2 -i 9 -a 2 -x {0.0 1.0 2 ------- null}
h -t 0.020896 -s 0 -d 1 -p tcp -e 1040 -c 2 -i 9 -a 2 -x {0.0 1.0 -1 ------- null}
- -t 0.020896 -s 0 -d 2 -p tcp -e 1040 -c 2 -i 11 -a 2 -x {0.1 2.0 2 ------- null}
h -t 0.020896 -s 0 -d 2 -p tcp -e 1040 -c 2 -i 11 -a 2 -x {0.1 2.0 -1 ------- null}
- -t 0.020896 -s 1 -d 3 -p tcp -e 1040 -c 2 -i 13 -a 2 -x {1.1 3.0 2 ------- null}
h -t 0.020896 -s 1 -d 3 -p tcp -e 1040 -c 2 -i 13 -a 2 -x {1.1 3.0 -1 ------- null}
- -t 0.020896 -s 1 -d 4 -p tcp -e 1040 -c 2 -i 15 -a 2 -x {1.2 4.0 2 ------- null}
h -t 0.020896 -s 1 -d 4 -p tcp -e 1040 -c 2 -i 15 -a 2 -x {1.2 4.0 -1 ------- null}
r -t 0.030896 -s 0 -d 1 -p tcp -e 1040 -c 2 -i 8 -a 2 -x {0.0 1.0 1 ------- null}
+ -t 0.030896 -s 1 -d 0 -p ack -e 40 -c 2 -i 16 -a 2 -x {1.0 0.0 1 ------- null}
- -t 0.030896 -s 1 -d 0 -p ack -e 40 -c 2 -i 16 -a 2 -x {1.0 0.0 1 ------- null}
h -t 0.030896 -s 1 -d 0 -p ack -e 40 -c 2 -i 16 -a 2 -x {1.0 0.0 -1 ------- null}
r -t 0.030896 -s 0 -d 2 -p tcp -e 1040 -c 2 -i 10 -a 2 -x {0.1 2.0 1 ------- null}
+ -t 0.030896 -s 2 -d 0 -p ack -e 40 -c 2 -i 17 -a 2 -x {2.0 0.1 1 ------- null}
- -t 0.030896 -s 2 -d 0 -p ack -e 40 -c 2 -i 17 -a 2 -x {2.0 0.1 1 ------- null}
h -t 0.030896 -s 2 -d 0 -p ack -e 40 -c 2 -i 17 -a 2 -x {2.0 0.1 -1 ------- null}
r -t 0.030896 -s 1 -d 3 -p tcp -e 1040 -c 2 -i 12 -a 2 -x {1.1 3.0 1 ------- null}
+ -t 0.030896 -s 3 -d 1 -p ack -e 40 -c 2 -i 18 -a 2 -x {3.0 1.1 1 ------- null}
- -t 0.030896 -s 3 -d 1 -p ack -e 40 -c 2 -i 18 -a 2 -x {3.0 1.1 1 ------- null}
h -t 0.030896 -s 3 -d 1 -p ack -e 40 -c 2 -i 18 -a 2 -x {3.0 1.1 -1 ------- null}
r -t 0.030896 -s 1 -d 4 -p tcp -e 1040 -c 2 -i 14 -a 2 -x {1.2 4.0 1 ------- null}
+ -t 0.030896 -s 4 -d 1 -p ack -e 40 -c 2 -i 19 -a 2 -x {4.0 1.2 1 ------- null}
- -t 0.030896 -s 4 -d 1 -p ack -e 40 -c 2 -i 19 -a 2 -x {4.0 1.2 1 ------- null}
h -t 0.030896 -s 4 -d 1 -p ack -e 40 -c 2 -i 19 -a 2 -x {4.0 1.2 -1 ------- null}
r -t 0.031728 -s 0 -d 1 -p tcp -e 1040 -c 2 -i 9 -a 2 -x {0.0 1.0 2 ------- null}
+ -t 0.031728 -s 1 -d 0 -p ack -e 40 -c 2 -i 20 -a 2 -x {1.0 0.0 2 ------- null}
- -t 0.031728 -s 1 -d 0 -p ack -e 40 -c 2 -i 20 -a 2 -x {1.0 0.0 2 ------- null}
h -t 0.031728 -s 1 -d 0 -p ack -e 40 -c 2 -i 20 -a 2 -x {1.0 0.0 -1 ------- null}
r -t 0.031728 -s 0 -d 2 -p tcp -e 1040 -c 2 -i 11 -a 2 -x {0.1 2.0 2 ------- null}
+ -t 0.031728 -s 2 -d 0 -p ack -e 40 -c 2 -i 21 -a 2 -x {2.0 0.1 2 ------- null}
- -t 0.031728 -s 2 -d 0 -p ack -e 40 -c 2 -i 21 -a 2 -x {2.0 0.1 2 ------- null}
h -t 0.031728 -s 2 -d 0 -p ack -e 40 -c 2 -i 21 -a 2 -x {2.0 0.1 -1 ------- null}
r -t 0.031728 -s 1 -d 3 -p tcp -e 1040 -c 2 -i 13 -a 2 -x {1.1 3.0 2 ------- null}
+ -t 0.031728 -s 3 -d 1 -p ack -e 40 -c 2 -i 22 -a 2 -x {3.0 1.1 2 ------- null}
- -t 0.031728 -s 3 -d 1 -p ack -e 40 -c 2 -i 22 -a 2 -x {3.0 1.1 2 ------- null}
h -t 0.031728 -s 3 -d 1 -p ack -e 40 -c 2 -i 22 -a 2 -x {3.0 1.1 -1 ------- null}
r -t 0.031728 -s 1 -d 4 -p tcp -e 1040 -c 2 -i 15 -a 2 -x {1.2 4.0 2 ------- null}
+ -t 0.031728 -s 4 -d 1 -p ack -e 40 -c 2 -i 23 -a 2 -x {4.0 1.2 2 ------- null}
- -t 0.031728 -s 4 -d 1 -p ack -e 40 -c 2 -i 23 -a 2 -x {4.0 1.2 2 ------- null}
h -t 0.031728 -s 4 -d 1 -p ack -e 40 -c 2 -i 23 -a 2 -x {4.0 1.2 -1 ------- null}
r -t 0.040928 -s 1 -d 0 -p ack -e 40 -c 2 -i 16 -a 2 -x {1.0 0.0 1 ------- null}
+ -t 0.040928 -s 0 -d 1 -p tcp -e 1040 -c 2 -i 24 -a 2 -x {0.0 1.0 3 ------- null}
- -t 0.040928 -s 0 -d 1 -p tcp -e 1040 -c 2 -i 24 -a 2 -x {0.0 1.0 3 ------- null}
h -t 0.040928 -s 0 -d 1 -p tcp -e 1040 -c 2 -i 24 -a 2 -x {0.0 1.0 -1 ------- null}
+ -t 0.040928 -s 0 -d 1 -p tcp -e 1040 -c 2 -i 25 -a 2 -x {0.0 1.0 4 ------- null}
r -t 0.040928 -s 2 -d 0 -p ack -e 40 -c 2 -i 17 -a 2 -x {2.0 0.1 1 ------- null}
+ -t 0.040928 -s 0 -d 2 -p tcp -e 1040 -c 2 -i 26 -a 2 -x {0.1 2.0 3 ------- null}
- -t 0.040928 -s 0 -d 2 -p tcp -e 1040 -c 2 -i 26 -a 2 -x {0.1 2.0 3 ------- null}
h -t 0.040928 -s 0 -d 2 -p tcp -e 1040 -c 2 -i 26 -a 2 -x {0.1 2.0 -1 ------- null}
+ -t 0.040928 -s 0 -d 2 -p tcp -e 1040 -c 2 -i 27 -a 2 -x {0.1 2.0 4 ------- null}
r -t 0.040928 -s 3 -d 1 -p ack -e 40 -c 2 -i 18 -a 2 -x {3.0 1.1 1 ------- null}
+ -t 0.040928 -s 1 -d 3 -p tcp -e 1040 -c 2 -i 28 -a 2 -x {1.1 3.0 3 ------- null}
- -t 0.040928 -s 1 -d 3 -p tcp -e 1040 -c 2 -i 28 -a 2 -x {1.1 3.0 3 ------- null}
h -t 0.040928 -s 1 -d 3 -p tcp -e 1040 -c 2 -i 28 -a 2 -x {1.1 3.0 -1 ------- null}
+ -t 0.040928 -s 1 -d 3 -p tcp -e 1040 -c 2 -i 29 -a 2 -x {1.1 3.0 4 ------- null}
r -t 0.040928 -s 4 -d 1 -p ack -e 40 -c 2 -i 19 -a 2 -x {4.0 1.2 1 ------- null}
+ -t 0.040928 -s 1 -d 4 -p tcp -e 1040 -c 2 -i 30 -a 2 -x {1.2 4.0 3 ------- null}
- -t 0.040928 -s 1 -d 4 -p tcp -e 1040 -c 2 -i 30 -a 2 -x {1.2 4.0 3 ------- null}
h -t 0.040928 -s 1 -d 4 -p tcp -e 1040 -c 2 -i 30 -a 2 -x {1.2 4.0 -1 ------- null}
+ -t 0.040928 -s 1 -d 4 -p tcp -e 1040 -c 2 -i 31 -a 2 -x {1.2 4.0 4 ------- null}
r -t 0.04176 -s 1 -d 0 -p ack -e 40 -c 2 -i 20 -a 2 -x {1.0 0.0 2 ------- null}
+ -t 0.04176 -s 0 -d 1 -p tcp -e 1040 -c 2 -i 32 -a 2 -x {0.0 1.0 5 ------- null}
+ -t 0.04176 -s 0 -d 1 -p tcp -e 1040 -c 2 -i 33 -a 2 -x {0.0 1.0 6 ------- null}
r -t 0.04176 -s 2 -d 0 -p ack -e 40 -c 2 -i 21 -a 2 -x {2.0 0.1 2 ------- null}
+ -t 0.04176 -s 0 -d 2 -p tcp -e 1040 -c 2 -i 34 -a 2 -x {0.1 2.0 5 ------- null}
+ -t 0.04176 -s 0 -d 2 -p tcp -e 1040 -c 2 -i 35 -a 2 -x {0.1 2.0 6 ------- null}
r -t 0.04176 -s 3 -d 1 -p ack -e 40 -c 2 -i 22 -a 2 -x {3.0 1.1 2 ------- null}
+ -t 0.04176 -s 1 -d 3 -p tcp -e 1040 -c 2 -i 36 -a 2 -x {1.1 3.0 5 ------- null}
+ -t 0.04176 -s 1 -d 3 -p tcp -e 1040 -c 2 -i 37 -a 2 -x {1.1 3.0 6 ------- null}
r -t 0.04176 -s 4 -d 1 -p ack -e 40 -c 2 -i 23 -a 2 -x {4.0 1.2 2 ------- null}
+ -t 0.04176 -s 1 -d 4 -p tcp -e 1040 -c 2 -i 38 -a 2 -x {1.2 4.0 5 ------- null}
+ -t 0.04176 -s 1 -d 4 -p tcp -e 1040 -c 2 -i 39 -a 2 -x {1.2 4.0 6 ------- null}
- -t 0.04176 -s 0 -d 1 -p tcp -e 1040 -c 2 -i 25 -a 2 -x {0.0 1.0 4 ------- null}
h -t 0.04176 -s 0 -d 1 -p tcp -e 1040 -c 2 -i 25 -a 2 -x {0.0 1.0 -1 ------- null}
- -t 0.04176 -s 0 -d 2 -p tcp -e 1040 -c 2 -i 27 -a 2 -x {0.1 2.0 4 ------- null}
h -t 0.04176 -s 0 -d 2 -p tcp -e 1040 -c 2 -i 27 -a 2 -x {0.1 2.0 -1 ------- null}
- -t 0.04176 -s 1 -d 3 -p tcp -e 1040 -c 2 -i 29 -a 2 -x {1.1 3.0 4 ------- null}
h -t 0.04176 -s 1 -d 3 -p tcp -e 1040 -c 2 -i 29 -a 2 -x {1.1 3.0 -1 ------- null}
- -t 0.04176 -s 1 -d 4 -p tcp -e 1040 -c 2 -i 31 -a 2 -x {1.2 4.0 4 ------- null}
h -t 0.04176 -s 1 -d 4 -p tcp -e 1040 -c 2 -i 31 -a 2 -x {1.2 4.0 -1 ------- null}
- -t 0.042592 -s 0 -d 1 -p tcp -e 1040 -c 2 -i 32 -a 2 -x {0.0 1.0 5 ------- null}
h -t 0.042592 -s 0 -d 1 -p tcp -e 1040 -c 2 -i 32 -a 2 -x {0.0 1.0 -1 ------- null}
- -t 0.042592 -s 0 -d 2 -p tcp -e 1040 -c 2 -i 34 -a 2 -x {0.1 2.0 5 ------- null}
h -t 0.042592 -s 0 -d 2 -p tcp -e 1040 -c 2 -i 34 -a 2 -x {0.1 2.0 -1 ------- null}
- -t 0.042592 -s 1 -d 3 -p tcp -e 1040 -c 2 -i 36 -a 2 -x {1.1 3.0 5 ------- null}
h -t 0.042592 -s 1 -d 3 -p tcp -e 1040 -c 2 -i 36 -a 2 -x {1.1 3.0 -1 ------- null}
- -t 0.042592 -s 1 -d 4 -p tcp -e 1040 -c 2 -i 38 -a 2 -x {1.2 4.0 5 ------- null}
h -t 0.042592 -s 1 -d 4 -p tcp -e 1040 -c 2 -i 38 -a 2 -x {1.2 4.0 -1 ------- null}
- -t 0.043424 -s 0 -d 1 -p tcp -e 1040 -c 2 -i 33 -a 2 -x {0.0 1.0 6 ------- null}
h -t 0.043424 -s 0 -d 1 -p tcp -e 1040 -c 2 -i 33 -a 2 -x {0.0 1.0 -1 ------- null}
- -t 0.043424 -s 0 -d 2 -p tcp -e 1040 -c 2 -i 35 -a 2 -x {0.1 2.0 6 ------- null}
h -t 0.043424 -s 0 -d 2 -p tcp -e 1040 -c 2 -i 35 -a 2 -x {0.1 2.0 -1 ------- null}
- -t 0.043424 -s 1 -d 3 -p tcp -e 1040 -c 2 -i 37 -a 2 -x {1.1 3.0 6 ------- null}
h -t 0.043424 -s 1 -d 3 -p tcp -e 1040 -c 2 -i 37 -a 2 -x {1.1 3.0 -1 ------- null}
- -t 0.043424 -s 1 -d 4 -p tcp -e 1040 -c 2 -i 39 -a 2 -x {1.2 4.0 6 ------- null}
h -t 0.043424 -s 1 -d 4 -p tcp -e 1040 -c 2 -i 39 -a 2 -x {1.2 4.0 -1 ------- null}
r -t 0.05176 -s 0 -d 1 -p tcp -e 1040 -c 2 -i 24 -a 2 -x {0.0 1.0 3 ------- null}
+ -t 0.05176 -s 1 -d 0 -p ack -e 40 -c 2 -i 40 -a 2 -x {1.0 0.0 3 ------- null}
- -t 0.05176 -s 1 -d 0 -p ack -e 40 -c 2 -i 40 -a 2 -x {1.0 0.0 3 ------- null}
h -t 0.05176 -s 1 -d 0 -p ack -e 40 -c 2 -i 40 -a 2 -x {1.0 0.0 -1 ------- null}
r -t 0.05176 -s 0 -d 2 -p tcp -e 1040 -c 2 -i 26 -a 2 -x {0.1 2.0 3 ------- null}
+ -t 0.05176 -s 2 -d 0 -p ack -e 40 -c 2 -i 41 -a 2 -x {2.0 0.1 3 ------- null}
- -t 0.05176 -s 2 -d 0 -p ack -e 40 -c 2 -i 41 -a 2 -x {2.0 0.1 3 ------- null}
h -t 0.05176 -s 2 -d 0 -p ack -e 40 -c 2 -i 41 -a 2 -x {2.0 0.1 -1 ------- null}
r -t 0.05176 -s 1 -d 3 -p tcp -e 1040 -c 2 -i 28 -a 2 -x {1.1 3.0 3 ------- null}
+ -t 0.05176 -s 3 -d 1 -p ack -e 40 -c 2 -i 42 -a 2 -x {3.0 1.1 3 ------- null}
- -t 0.05176 -s 3 -d 1 -p ack -e 40 -c 2 -i 42 -a 2 -x {3.0 1.1 3 ------- null}
h -t 0.05176 -s 3 -d 1 -p ack -e 40 -c 2 -i 42 -a 2 -x {3.0 1.1 -1 ------- null}
r -t 0.05176 -s 1 -d 4 -p tcp -e 1040 -c 2 -i 30 -a 2 -x {1.2 4.0 3 ------- null}
+ -t 0.05176 -s 4 -d 1 -p ack -e 40 -c 2 -i 43 -a 2 -x {4.0 1.2 3 ------- null}
- -t 0.05176 -s 4 -d 1 -p ack -e 40 -c 2 -i 43 -a 2 -x {4.0 1.2 3 ------- null}
h -t 0.05176 -s 4 -d 1 -p ack -e 40 -c 2 -i 43 -a 2 -x {4.0 1.2 -1 ------- null}
r -t 0.052592 -s 0 -d 1 -p tcp -e 1040 -c 2 -i 25 -a 2 -x {0.0 1.0 4 ------- null}
+ -t 0.052592 -s 1 -d 0 -p ack -e 40 -c 2 -i 44 -a 2 -x {1.0 0.0 4 ------- null}
- -t 0.052592 -s 1 -d 0 -p ack -e 40 -c 2 -i 44 -a 2 -x {1.0 0.0 4 ------- null}
h -t 0.052592 -s 1 -d 0 -p ack -e 40 -c 2 -i 44 -a 2 -x {1.0 0.0 -1 ------- null}
r -t 0.052592 -s 0 -d 2 -p tcp -e 1040 -c 2 -i 27 -a 2 -x {0.1 2.0 4 ------- null}
+ -t 0.052592 -s 2 -d 0 -p ack -e 40 -c 2 -i 45 -a 2 -x {2.0 0.1 4 ------- null}
- -t 0.052592 -s 2 -d 0 -p ack -e 40 -c 2 -i 45 -a 2 -x {2.0 0.1 4 ------- null}
h -t 0.052592 -s 2 -d 0 -p ack -e 40 -c 2 -i 45 -a 2 -x {2.0 0.1 -1 ------- null}
r -t 0.052592 -s 1 -d 3 -p tcp -e 1040 -c 2 -i 29 -a 2 -x {1.1 3.0 4 ------- null}
+ -t 0.052592 -s 3 -d 1 -p ack -e 40 -c 2 -i 46 -a 2 -x {3.0 1.1 4 ------- null}
- -t 0.052592 -s 3 -d 1 -p ack -e 40 -c 2 -i 46 -a 2 -x {3.0 1.1 4 ------- null}
h -t 0.052592 -s 3 -d 1 -p ack -e 40 -c 2 -i 46 -a 2 -x {3.0 1.1 -1 ------- null}
r -t 0.052592 -s 1 -d 4 -p tcp -e 1040 -c 2 -i 31 -a 2 -x {1.2 4.0 4 ------- null}
+ -t 0.052592 -s 4 -d 1 -p ack -e 40 -c 2 -i 47 -a 2 -x {4.0 1.2 4 ------- null}
- -t 0.052592 -s 4 -d 1 -p ack -e 40 -c 2 -i 47 -a 2 -x {4.0 1.2 4 ------- null}
h -t 0.052592 -s 4 -d 1 -p ack -e 40 -c 2 -i 47 -a 2 -x {4.0 1.2 -1 ------- null}
r -t 0.053424 -s 0 -d 1 -p tcp -e 1040 -c 2 -i 32 -a 2 -x {0.0 1.0 5 ------- null}
+ -t 0.053424 -s 1 -d 0 -p ack -e 40 -c 2 -i 48 -a 2 -x {1.0 0.0 5 ------- null}
- -t 0.053424 -s 1 -d 0 -p ack -e 40 -c 2 -i 48 -a 2 -x {1.0 0.0 5 ------- null}
h -t 0.053424 -s 1 -d 0 -p ack -e 40 -c 2 -i 48 -a 2 -x {1.0 0.0 -1 ------- null}
r -t 0.053424 -s 0 -d 2 -p tcp -e 1040 -c 2 -i 34 -a 2 -x {0.1 2.0 5 ------- null}
+ -t 0.053424 -s 2 -d 0 -p ack -e 40 -c 2 -i 49 -a 2 -x {2.0 0.1 5 ------- null}
- -t 0.053424 -s 2 -d 0 -p ack -e 40 -c 2 -i 49 -a 2 -x {2.0 0.1 5 ------- null}
h -t 0.053424 -s 2 -d 0 -p ack -e 40 -c 2 -i 49 -a 2 -x {2.0 0.1 -1 ------- null}
r -t 0.053424 -s 1 -d 3 -p tcp -e 1040 -c 2 -i 36 -a 2 -x {1.1 3.0 5 ------- null}
+ -t 0.053424 -s 3 -d 1 -p ack -e 40 -c 2 -i 50 -a 2 -x {3.0 1.1 5 ------- null}
- -t 0.053424 -s 3 -d 1 -p ack -e 40 -c 2 -i 50 -a 2 -x {3.0 1.1 5 ------- null}
h -t 0.053424 -s 3 -d 1 -p ack -e 40 -c 2 -i 50 -a 2 -x {3.0 1.1 -1 ------- null}
r -t 0.053424 -s 1 -d 4 -p tcp -e 1040 -c 2 -i 38 -a 2 -x {1.2 4.0 5 ------- null}
+ -t 0.053424 -s 4 -d 1 -p ack -e 40 -c 2 -i 51 -a 2 -x {4.0 1.2 5 ------- null}
- -t 0.053424 -s 4 -d 1 -p ack -e 40 -c 2 -i 51 -a 2 -x {4.0 1.2 5 ------- null}
h -t 0.053424 -s 4 -d 1 -p ack -e 40 -c 2 -i 51 -a 2 -x {4.0 1.2 -1 ------- null}
r -t 0.054256 -s 0 -d 1 -p tcp -e 1040 -c 2 -i 33 -a 2 -x {0.0 1.0 6 ------- null}
+ -t 0.054256 -s 1 -d 0 -p ack -e 40 -c 2 -i 52 -a 2 -x {1.0 0.0 6 ------- null}
- -t 0.054256 -s 1 -d 0 -p ack -e 40 -c 2 -i 52 -a 2 -x {1.0 0.0 6 ------- null}
h -t 0.054256 -s 1 -d 0 -p ack -e 40 -c 2 -i 52 -a 2 -x {1.0 0.0 -1 ------- null}
r -t 0.054256 -s 0 -d 2 -p tcp -e 1040 -c 2 -i 35 -a 2 -x {0.1 2.0 6 ------- null}
+ -t 0.054256 -s 2 -d 0 -p ack -e 40 -c 2 -i 53 -a 2 -x {2.0 0.1 6 ------- null}
- -t 0.054256 -s 2 -d 0 -p ack -e 40 -c 2 -i 53 -a 2 -x {2.0 0.1 6 ------- null}
h -t 0.054256 -s 2 -d 0 -p ack -e 40 -c 2 -i 53 -a 2 -x {2.0 0.1 -1 ------- null}
r -t 0.054256 -s 1 -d 3 -p tcp -e 1040 -c 2 -i 37 -a 2 -x {1.1 3.0 6 ------- null}
+ -t 0.054256 -s 3 -d 1 -p ack -e 40 -c 2 -i 54 -a 2 -x {3.0 1.1 6 ------- null}
- -t 0.054256 -s 3 -d 1 -p ack -e 40 -c 2 -i 54 -a 2 -x {3.0 1.1 6 ------- null}
h -t 0.054256 -s 3 -d 1 -p ack -e 40 -c 2 -i 54 -a 2 -x {3.0 1.1 -1 ------- null}
r -t 0.054256 -s 1 -d 4 -p tcp -e 1040 -c 2 -i 39 -a 2 -x {1.2 4.0 6 ------- null}
+ -t 0.054256 -s 4 -d 1 -p ack -e 40 -c 2 -i 55 -a 2 -x {4.0 1.2 6 ------- null}
- -t 0.054256 -s 4 -d 1 -p ack -e 40 -c 2 -i 55 -a 2 -x {4.0 1.2 6 ------- null}
h -t 0.054256 -s 4 -d 1 -p ack -e 40 -c 2 -i 55 -a 2 -x {4.0 1.2 -1 ------- null}
r -t 0.061792 -s 1 -d 0 -p ack -e 40 -c 2 -i 40 -a 2 -x {1.0 0.0 3 ------- null}
+ -t 0.061792 -s 0 -d 1 -p tcp -e 1040 -c 2 -i 56 -a 2 -x {0.0 1.0 7 ------- null}
- -t 0.061792 -s 0 -d 1 -p tcp -e 1040 -c 2 -i 56 -a 2 -x {0.0 1.0 7 ------- null}
h -t 0.061792 -s 0 -d 1 -p tcp -e 1040 -c 2 -i 56 -a 2 -x {0.0 1.0 -1 ------- null}
+ -t 0.061792 -s 0 -d 1 -p tcp -e 1040 -c 2 -i 57 -a 2 -x {0.0 1.0 8 ------- null}
r -t 0.061792 -s 2 -d 0 -p ack -e 40 -c 2 -i 41 -a 2 -x {2.0 0.1 3 ------- null}
+ -t 0.061792 -s 0 -d 2 -p tcp -e 1040 -c 2 -i 58 -a 2 -x {0.1 2.0 7 ------- null}
- -t 0.061792 -s 0 -d 2 -p tcp -e 1040 -c 2 -i 58 -a 2 -x {0.1 2.0 7 ------- null}
h -t 0.061792 -s 0 -d 2 -p tcp -e 1040 -c 2 -i 58 -a 2 -x {0.1 2.0 -1 ------- null}
+ -t 0.061792 -s 0 -d 2 -p tcp -e 1040 -c 2 -i 59 -a 2 -x {0.1 2.0 8 ------- null}
r -t 0.061792 -s 3 -d 1 -p ack -e 40 -c 2 -i 42 -a 2 -x {3.0 1.1 3 ------- null}
+ -t 0.061792 -s 1 -d 3 -p tcp -e 1040 -c 2 -i 60 -a 2 -x {1.1 3.0 7 ------- null}
- -t 0.061792 -s 1 -d 3 -p tcp -e 1040 -c 2 -i 60 -a 2 -x {1.1 3.0 7 ------- null}
h -t 0.061792 -s 1 -d 3 -p tcp -e 1040 -c 2 -i 60 -a 2 -x {1.1 3.0 -1 ------- null}
+ -t 0.061792 -s 1 -d 3 -p tcp -e 1040 -c 2 -i 61 -a 2 -x {1.1 3.0 8 ------- null}
r -t 0.061792 -s 4 -d 1 -p ack -e 40 -c 2 -i 43 -a 2 -x {4.0 1.2 3 ------- null}
+ -t 0.061792 -s 1 -d 4 -p tcp -e 1040 -c 2 -i 62 -a 2 -x {1.2 4.0 7 ------- null}
- -t 0.061792 -s 1 -d 4 -p tcp -e 1040 -c 2 -i 62 -a 2 -x {1.2 4.0 7 ------- null}
h -t 0.061792 -s 1 -d 4 -p tcp -e 1040 -c 2 -i 62 -a 2 -x {1.2 4.0 -1 ------- null}
+ -t 0.061792 -s 1 -d 4 -p tcp -e 1040 -c 2 -i 63 -a 2 -x {1.2 4.0 8 ------- null}
r -t 0.062624 -s 1 -d 0 -p ack -e 40 -c 2 -i 44 -a 2 -x {1.0 0.0 4 ------- null}
+ -t 0.062624 -s 0 -d 1 -p tcp -e 1040 -c 2 -i 64 -a 2 -x {0.0 1.0 9 ------- null}
+ -t 0.062624 -s 0 -d 1 -p tcp -e 1040 -c 2 -i 65 -a 2 -x {0.0 1.0 10 ------- null}
r -t 0.062624 -s 2 -d 0 -p ack -e 40 -c 2 -i 45 -a 2 -x {2.0 0.1 4 ------- null}
+ -t 0.062624 -s 0 -d 2 -p tcp -e 1040 -c 2 -i 66 -a 2 -x {0.1 2.0 9 ------- null}
+ -t 0.062624 -s 0 -d 2 -p tcp -e 1040 -c 2 -i 67 -a 2 -x {0.1 2.0 10 ------- null}
r -t 0.062624 -s 3 -d 1 -p ack -e 40 -c 2 -i 46 -a 2 -x {3.0 1.1 4 ------- null}
+ -t 0.062624 -s 1 -d 3 -p tcp -e 1040 -c 2 -i 68 -a 2 -x {1.1 3.0 9 ------- null}
+ -t 0.062624 -s 1 -d 3 -p tcp -e 1040 -c 2 -i 69 -a 2 -x {1.1 3.0 10 ------- null}
r -t 0.062624 -s 4 -d 1 -p ack -e 40 -c 2 -i 47 -a 2 -x {4.0 1.2 4 ------- null}
+ -t 0.062624 -s 1 -d 4 -p tcp -e 1040 -c 2 -i 70 -a 2 -x {1.2 4.0 9 ------- null}
+ -t 0.062624 -s 1 -d 4 -p tcp -e 1040 -c 2 -i 71 -a 2 -x {1.2 4.0 10 ------- null}
- -t 0.062624 -s 0 -d 1 -p tcp -e 1040 -c 2 -i 57 -a 2 -x {0.0 1.0 8 ------- null}
h -t 0.062624 -s 0 -d 1 -p tcp -e 1040 -c 2 -i 57 -a 2 -x {0.0 1.0 -1 ------- null}
- -t 0.062624 -s 0 -d 2 -p tcp -e 1040 -c 2 -i 59 -a 2 -x {0.1 2.0 8 ------- null}
h -t 0.062624 -s 0 -d 2 -p tcp -e 1040 -c 2 -i 59 -a 2 -x {0.1 2.0 -1 ------- null}
- -t 0.062624 -s 1 -d 3 -p tcp -e 1040 -c 2 -i 61 -a 2 -x {1.1 3.0 8 ------- null}
h -t 0.062624 -s 1 -d 3 -p tcp -e 1040 -c 2 -i 61 -a 2 -x {1.1 3.0 -1 ------- null}
- -t 0.062624 -s 1 -d 4 -p tcp -e 1040 -c 2 -i 63 -a 2 -x {1.2 4.0 8 ------- null}
h -t 0.062624 -s 1 -d 4 -p tcp -e 1040 -c 2 -i 63 -a 2 -x {1.2 4.0 -1 ------- null}
r -t 0.063456 -s 1 -d 0 -p ack -e 40 -c 2 -i 48 -a 2 -x {1.0 0.0 5 ------- null}
+ -t 0.063456 -s 0 -d 1 -p tcp -e 1040 -c 2 -i 72 -a 2 -x {0.0 1.0 11 ------- null}
+ -t 0.063456 -s 0 -d 1 -p tcp -e 1040 -c 2 -i 73 -a 2 -x {0.0 1.0 12 ------- null}
r -t 0.063456 -s 2 -d 0 -p ack -e 40 -c 2 -i 49 -a 2 -x {2.0 0.1 5 ------- null}
+ -t 0.063456 -s 0 -d 2 -p tcp -e 1040 -c 2 -i 74 -a 2 -x {0.1 2.0 11 ------- null}
+ -t 0.063456 -s 0 -d 2 -p tcp -e 1040 -c 2 -i 75 -a 2 -x {0.1 2.0 12 ------- null}
r -t 0.063456 -s 3 -d 1 -p ack -e 40 -c 2 -i 50 -a 2 -x {3.0 1.1 5 ------- null}
+ -t 0.063456 -s 1 -d 3 -p tcp -e 1040 -c 2 -i 76 -a 2 -x {1.1 3.0 11 ------- null}
+ -t 0.063456 -s 1 -d 3 -p tcp -e 1040 -c 2 -i 77 -a 2 -x {1.1 3.0 12 ------- null}
r -t 0.063456 -s 4 -d 1 -p ack -e 40 -c 2 -i 51 -a 2 -x {4.0 1.2 5 ------- null}
+ -t 0.063456 -s 1 -d 4 -p tcp -e 1040 -c 2 -i 78 -a 2 -x {1.2 4.0 11 ------- null}
+ -t 0.063456 -s 1 -d 4 -p tcp -e 1040 -c 2 -i 79 -a 2 -x {1.2 4.0 12 ------- null}
- -t 0.063456 -s 0 -d 1 -p tcp -e 1040 -c 2 -i 64 -a 2 -x {0.0 1.0 9 ------- null}
h -t 0.063456 -s 0 -d 1 -p tcp -e 1040 -c 2 -i 64 -a 2 -x {0.0 1.0 -1 ------- null}
- -t 0.063456 -s 0 -d 2 -p tcp -e 1040 -c 2 -i 66 -a 2 -x {0.1 2.0 9 ------- null}
h -t 0.063456 -s 0 -d 2 -p tcp -e 1040 -c 2 -i 66 -a 2 -x {0.1 2.0 -1 ------- null}
- -t 0.063456 -s 1 -d 3 -p tcp -e 1040 -c 2 -i 68 -a 2 -x {1.1 3.0 9 ------- null}
h -t 0.063456 -s 1 -d 3 -p tcp -e 1040 -c 2 -i 68 -a 2 -x {1.1 3.0 -1 ------- null}
- -t 0.063456 -s 1 -d 4 -p tcp -e 1040 -c 2 -i 70 -a 2 -x {1.2 4.0 9 ------- null}
h -t 0.063456 -s 1 -d 4 -p tcp -e 1040 -c 2 -i 70 -a 2 -x {1.2 4.0 -1 ------- null}
r -t 0.064288 -s 1 -d 0 -p ack -e 40 -c 2 -i 52 -a 2 -x {1.0 0.0 6 ------- null}
+ -t 0.064288 -s 0 -d 1 -p tcp -e 1040 -c 2 -i 80 -a 2 -x {0.0 1.0 13 ------- null}
+ -t 0.064288 -s 0 -d 1 -p tcp -e 1040 -c 2 -i 81 -a 2 -x {0.0 1.0 14 ------- null}
r -t 0.064288 -s 2 -d 0 -p ack -e 40 -c 2 -i 53 -a 2 -x {2.0 0.1 6 ------- null}
+ -t 0.064288 -s 0 -d 2 -p tcp -e 1040 -c 2 -i 82 -a 2 -x {0.1 2.0 13 ------- null}
+ -t 0.064288 -s 0 -d 2 -p tcp -e 1040 -c 2 -i 83 -a 2 -x {0.1 2.0 14 ------- null}
r -t 0.064288 -s 3 -d 1 -p ack -e 40 -c 2 -i 54 -a 2 -x {3.0 1.1 6 ------- null}
+ -t 0.064288 -s 1 -d 3 -p tcp -e 1040 -c 2 -i 84 -a 2 -x {1.1 3.0 13 ------- null}
+ -t 0.064288 -s 1 -d 3 -p tcp -e 1040 -c 2 -i 85 -a 2 -x {1.1 3.0 14 ------- null}
r -t 0.064288 -s 4 -d 1 -p ack -e 40 -c 2 -i 55 -a 2 -x {4.0 1.2 6 ------- null}
+ -t 0.064288 -s 1 -d 4 -p tcp -e 1040 -c 2 -i 86 -a 2 -x {1.2 4.0 13 ------- null}
+ -t 0.064288 -s 1 -d 4 -p tcp -e 1040 -c 2 -i 87 -a 2 -x {1.2 4.0 14 ------- null}
- -t 0.064288 -s 0 -d 1 -p tcp -e 1040 -c 2 -i 65 -a 2 -x {0.0 1.0 10 ------- null}
h -t 0.064288 -s 0 -d 1 -p tcp -e 1040 -c 2 -i 65 -a 2 -x {0.0 1.0 -1 ------- null}
- -t 0.064288 -s 0 -d 2 -p tcp -e 1040 -c 2 -i 67 -a 2 -x {0.1 2.0 10 ------- null}
h -t 0.064288 -s 0 -d 2 -p tcp -e 1040 -c 2 -i 67 -a 2 -x {0.1 2.0 -1 ------- null}
- -t 0.064288 -s 1 -d 3 -p tcp -e 1040 -c 2 -i 69 -a 2 -x {1.1 3.0 10 ------- null}
h -t 0.064288 -s 1 -d 3 -p tcp -e 1040 -c 2 -i 69 -a 2 -x {1.1 3.0 -1 ------- null}
- -t 0.064288 -s 1 -d 4 -p tcp -e 1040 -c 2 -i 71 -a 2 -x {1.2 4.0 10 ------- null}
h -t 0.064288 -s 1 -d 4 -p tcp -e 1040 -c 2 -i 71 -a 2 -x {1.2 4.0 -1 ------- null}
- -t 0.06512 -s 0 -d 1 -p tcp -e 1040 -c 2 -i 72 -a 2 -x {0.0 1.0 11 ------- null}
h -t 0.06512 -s 0 -d 1 -p tcp -e 1040 -c 2 -i 72 -a 2 -x {0.0 1.0 -1 ------- null}
- -t 0.06512 -s 0 -d 2 -p tcp -e 1040 -c 2 -i 74 -a 2 -x {0.1 2.0 11 ------- null}
h -t 0.06512 -s 0 -d 2 -p tcp -e 1040 -c 2 -i 74 -a 2 -x {0.1 2.0 -1 ------- null}
- -t 0.06512 -s 1 -d 3 -p tcp -e 1040 -c 2 -i 76 -a 2 -x {1.1 3.0 11 ------- null}
h -t 0.06512 -s 1 -d 3 -p tcp -e 1040 -c 2 -i 76 -a 2 -x {1.1 3.0 -1 ------- null}
- -t 0.06512 -s 1 -d 4 -p tcp -e 1040 -c 2 -i 78 -a 2 -x {1.2 4.0 11 ------- null}
h -t 0.06512 -s 1 -d 4 -p tcp -e 1040 -c 2 -i 78 -a 2 -x {1.2 4.0 -1 ------- null}
- -t 0.065952 -s 0 -d 1 -p tcp -e 1040 -c 2 -i 73 -a 2 -x {0.0 1.0 12 ------- null}
h -t 0.065952 -s 0 -d 1 -p tcp -e 1040 -c 2 -i 73 -a 2 -x {0.0 1.0 -1 ------- null}
- -t 0.065952 -s 0 -d 2 -p tcp -e 1040 -c 2 -i 75 -a 2 -x {0.1 2.0 12 ------- null}
h -t 0.065952 -s 0 -d 2 -p tcp -e 1040 -c 2 -i 75 -a 2 -x {0.1 2.0 -1 ------- null}
- -t 0.065952 -s 1 -d 3 -p tcp -e 1040 -c 2 -i 77 -a 2 -x {1.1 3.0 12 ------- null}
h -t 0.065952 -s 1 -d 3 -p tcp -e 1040 -c 2 -i 77 -a 2 -x {1.1 3.0 -1 ------- null}
- -t 0.065952 -s 1 -d 4 -p tcp -e 1040 -c 2 -i 79 -a 2 -x {1.2 4.0 12 ------- null}
h -t 0.065952 -s 1 -d 4 -p tcp -e 1040 -c 2 -i 79 -a 2 -x {1.2 4.0 -1 ------- null}
- -t 0.066784 -s 0 -d 1 -p tcp -e 1040 -c 2 -i 80 -a 2 -x {0.0 1.0 13 ------- null}
h -t 0.066784 -s 0 -d 1 -p tcp -e 1040 -c 2 -i 80 -a 2 -x {0.0 1.0 -1 ------- null}
- -t 0.066784 -s 0 -d 2 -p tcp -e 1040 -c 2 -i 82 -a 2 -x {0.1 2.0 13 ------- null}
h -t 0.066784 -s 0 -d 2 -p tcp -e 1040 -c 2 -i 82 -a 2 -x {0.1 2.0 -1 ------- null}
- -t 0.066784 -s 1 -d 3 -p tcp -e 1040 -c 2 -i 84 -a 2 -x {1.1 3.0 13 ------- null}
h -t 0.066784 -s 1 -d 3 -p tcp -e 1040 -c 2 -i 84 -a 2 -x {1.1 3.0 -1 ------- null}
- -t 0.066784 -s 1 -d 4 -p tcp -e 1040 -c 2 -i 86 -a 2 -x {1.2 4.0 13 ------- null}
h -t 0.066784 -s 1 -d 4 -p tcp -e 1040 -c 2 -i 86 -a 2 -x {1.2 4.0 -1 ------- null}
- -t 0.067616 -s 0 -d 1 -p tcp -e 1040 -c 2 -i 81 -a 2 -x {0.0 1.0 14 ------- null}
h -t 0.067616 -s 0 -d 1 -p tcp -e 1040 -c 2 -i 81 -a 2 -x {0.0 1.0 -1 ------- null}
- -t 0.067616 -s 0 -d 2 -p tcp -e 1040 -c 2 -i 83 -a 2 -x {0.1 2.0 14 ------- null}
h -t 0.067616 -s 0 -d 2 -p tcp -e 1040 -c 2 -i 83 -a 2 -x {0.1 2.0 -1 ------- null}
- -t 0.067616 -s 1 -d 3 -p tcp -e 1040 -c 2 -i 85 -a 2 -x {1.1 3.0 14 ------- null}
h -t 0.067616 -s 1 -d 3 -p tcp -e 1040 -c 2 -i 85 -a 2 -x {1.1 3.0 -1 ------- null}
- -t 0.067616 -s 1 -d 4 -p tcp -e 1040 -c 2 -i 87 -a 2 -x {1.2 4.0 14 ------- null}
h -t 0.067616 -s 1 -d 4 -p tcp -e 1040 -c 2 -i 87 -a 2 -x {1.2 4.0 -1 ------- null}
r -t 0.072624 -s 0 -d 1 -p tcp -e 1040 -c 2 -i 56 -a 2 -x {0.0 1.0 7 ------- null}
+ -t 0.072624 -s 1 -d 0 -p ack -e 40 -c 2 -i 88 -a 2 -x {1.0 0.0 7 ------- null}
- -t 0.072624 -s 1 -d 0 -p ack -e 40 -c 2 -i 88 -a 2 -x {1.0 0.0 7 ------- null}
h -t 0.072624 -s 1 -d 0 -p ack -e 40 -c 2 -i 88 -a 2 -x {1.0 0.0 -1 ------- null}
r -t 0.072624 -s 0 -d 2 -p tcp -e 1040 -c 2 -i 58 -a 2 -x {0.1 2.0 7 ------- null}
+ -t 0.072624 -s 2 -d 0 -p ack -e 40 -c 2 -i 89 -a 2 -x {2.0 0.1 7 ------- null}
- -t 0.072624 -s 2 -d 0 -p ack -e 40 -c 2 -i 89 -a 2 -x {2.0 0.1 7 ------- null}
h -t 0.072624 -s 2 -d 0 -p ack -e 40 -c 2 -i 89 -a 2 -x {2.0 0.1 -1 ------- null}
r -t 0.072624 -s 1 -d 3 -p tcp -e 1040 -c 2 -i 60 -a 2 -x {1.1 3.0 7 ------- null}
+ -t 0.072624 -s 3 -d 1 -p ack -e 40 -c 2 -i 90 -a 2 -x {3.0 1.1 7 ------- null}
- -t 0.072624 -s 3 -d 1 -p ack -e 40 -c 2 -i 90 -a 2 -x {3.0 1.1 7 ------- null}
h -t 0.072624 -s 3 -d 1 -p ack -e 40 -c 2 -i 90 -a 2 -x {3.0 1.1 -1 ------- null}
r -t 0.072624 -s 1 -d 4 -p tcp -e 1040 -c 2 -i 62 -a 2 -x {1.2 4.0 7 ------- null}
+ -t 0.072624 -s 4 -d 1 -p ack -e 40 -c 2 -i 91 -a 2 -x {4.0 1.2 7 ------- null}
- -t 0.072624 -s 4 -d 1 -p ack -e 40 -c 2 -i 91 -a 2 -x {4.0 1.2 7 ------- null}
h -t 0.072624 -s 4 -d 1 -p ack -e 40 -c 2 -i 91 -a 2 -x {4.0 1.2 -1 ------- null}
r -t 0.073456 -s 0 -d 1 -p tcp -e 1040 -c 2 -i 57 -a 2 -x {0.0 1.0 8 ------- null}
+ -t 0.073456 -s 1 -d 0 -p ack -e 40 -c 2 -i 92 -a 2 -x {1.0 0.0 8 ------- null}
- -t 0.073456 -s 1 -d 0 -p ack -e 40 -c 2 -i 92 -a 2 -x {1.0 0.0 8 ------- null}
h -t 0.073456 -s 1 -d 0 -p ack -e 40 -c 2 -i 92 -a 2 -x {1.0 0.0 -1 ------- null}
r -t 0.073456 -s 0 -d 2 -p tcp -e 1040 -c 2 -i 59 -a 2 -x {0.1 2.0 8 ------- null}
+ -t 0.073456 -s 2 -d 0 -p ack -e 40 -c 2 -i 93 -a 2 -x {2.0 0.1 8 ------- null}
- -t 0.073456 -s 2 -d 0 -p ack -e 40 -c 2 -i 93 -a 2 -x {2.0 0.1 8 ------- null}
h -t 0.073456 -s 2 -d 0 -p ack -e 40 -c 2 -i 93 -a 2 -x {2.0 0.1 -1 ------- null}
r -t 0.073456 -s 1 -d 3 -p tcp -e 1040 -c 2 -i 61 -a 2 -x {1.1 3.0 8 ------- null}
+ -t 0.073456 -s 3 -d 1 -p ack -e 40 -c 2 -i 94 -a 2 -x {3.0 1.1 8 ------- null}
- -t 0.073456 -s 3 -d 1 -p ack -e 40 -c 2 -i 94 -a 2 -x {3.0 1.1 8 ------- null}
h -t 0.073456 -s 3 -d 1 -p ack -e 40 -c 2 -i 94 -a 2 -x {3.0 1.1 -1 ------- null}
r -t 0.073456 -s 1 -d 4 -p tcp -e 1040 -c 2 -i 63 -a 2 -x {1.2 4.0 8 ------- null}
+ -t 0.073456 -s 4 -d 1 -p ack -e 40 -c 2 -i 95 -a 2 -x {4.0 1.2 8 ------- null}
- -t 0.073456 -s 4 -d 1 -p ack -e 40 -c 2 -i 95 -a 2 -x {4.0 1.2 8 ------- null}
h -t 0.073456 -s 4 -d 1 -p ack -e 40 -c 2 -i 95 -a 2 -x {4.0 1.2 -1 ------- null}
r -t 0.074288 -s 0 -d 1 -p tcp -e 1040 -c 2 -i 64 -a 2 -x {0.0 1.0 9 ------- null}
+ -t 0.074288 -s 1 -d 0 -p ack -e 40 -c 2 -i 96 -a 2 -x {1.0 0.0 9 ------- null}
- -t 0.074288 -s 1 -d 0 -p ack -e 40 -c 2 -i 96 -a 2 -x {1.0 0.0 9 ------- null}
h -t 0.074288 -s 1 -d 0 -p ack -e 40 -c 2 -i 96 -a 2 -x {1.0 0.0 -1 ------- null}
r -t 0.074288 -s 0 -d 2 -p tcp -e 1040 -c 2 -i 66 -a 2 -x {0.1 2.0 9 ------- null}