+ 0 0 1 cbr 1000 ------- 2 0.0 1.0 0 0
- 0 0 1 cbr 1000 ------- 2 0.0 1.0 0 0
+ 0 1 2 cbr 1000 ------- 0 1.1 2.0 0 1
- 0 1 2 cbr 1000 ------- 0 1.1 2.0 0 1
+ 0 2 3 cbr 1000 ------- 0 2.1 3.0 0 2
- 0 2 3 cbr 1000 ------- 0 2.1 3.0 0 2
+ 0 3 4 cbr 1000 ------- 0 3.1 4.0 0 3
- 0 3 4 cbr 1000 ------- 0 3.1 4.0 0 3
+ 0 4 0 cbr 1000 ------- 0 4.1 0.1 0 4
- 0 4 0 cbr 1000 ------- 0 4.1 0.1 0 4
+ 0.008 0 1 cbr 1000 ------- 2 0.0 1.0 1 5
- 0.008 0 1 cbr 1000 ------- 2 0.0 1.0 1 5
+ 0.008 1 2 cbr 1000 ------- 0 1.1 2.0 1 6
- 0.008 1 2 cbr 1000 ------- 0 1.1 2.0 1 6
+ 0.008 2 3 cbr 1000 ------- 0 2.1 3.0 1 7
- 0.008 2 3 cbr 1000 ------- 0 2.1 3.0 1 7
+ 0.008 3 4 cbr 1000 ------- 0 3.1 4.0 1 8
- 0.008 3 4 cbr 1000 ------- 0 3.1 4.0 1 8
+ 0.008 4 0 cbr 1000 ------- 0 4.1 0.1 1 9
- 0.008 4 0 cbr 1000 ------- 0 4.1 0.1 1 9
r 0.0108 2 3 cbr 1000 ------- 0 2.1 3.0 0 2
r 0.0128 1 2 cbr 1000 ------- 0 1.1 2.0 0 1
+ 0.016 0 1 cbr 1000 ------- 2 0.0 1.0 2 10
- 0.016 0 1 cbr 1000 ------- 2 0.0 1.0 2 10
+ 0.016 1 2 cbr 1000 ------- 0 1.1 2.0 2 11
- 0.016 1 2 cbr 1000 ------- 0 1.1 2.0 2 11
+ 0.016 2 3 cbr 1000 ------- 0 2.1 3.0 2 12
- 0.016 2 3 cbr 1000 ------- 0 2.1 3.0 2 12
+ 0.016 3 4 cbr 1000 ------- 0 3.1 4.0 2 13
- 0.016 3 4 cbr 1000 ------- 0 3.1 4.0 2 13
+ 0.016 4 0 cbr 1000 ------- 0 4.1 0.1 2 14
- 0.016 4 0 cbr 1000 ------- 0 4.1 0.1 2 14
r 0.0188 2 3 cbr 1000 ------- 0 2.1 3.0 1 7
r 0.0208 1 2 cbr 1000 ------- 0 1.1 2.0 1 6
+ 0.024 0 1 cbr 1000 ------- 2 0.0 1.0 3 15
- 0.024 0 1 cbr 1000 ------- 2 0.0 1.0 3 15
+ 0.024 1 2 cbr 1000 ------- 0 1.1 2.0 3 16
- 0.024 1 2 cbr 1000 ------- 0 1.1 2.0 3 16
+ 0.024 2 3 cbr 1000 ------- 0 2.1 3.0 3 17
- 0.024 2 3 cbr 1000 ------- 0 2.1 3.0 3 17
+ 0.024 3 4 cbr 1000 ------- 0 3.1 4.0 3 18
- 0.024 3 4 cbr 1000 ------- 0 3.1 4.0 3 18
+ 0.024 4 0 cbr 1000 ------- 0 4.1 0.1 3 19
- 0.024 4 0 cbr 1000 ------- 0 4.1 0.1 3 19
r 0.0268 2 3 cbr 1000 ------- 0 2.1 3.0 2 12
r 0.0288 1 2 cbr 1000 ------- 0 1.1 2.0 2 11
+ 0.032 0 1 cbr 1000 ------- 2 0.0 1.0 4 20
- 0.032 0 1 cbr 1000 ------- 2 0.0 1.0 4 20
+ 0.032 1 2 cbr 1000 ------- 0 1.1 2.0 4 21
- 0.032 1 2 cbr 1000 ------- 0 1.1 2.0 4 21
+ 0.032 2 3 cbr 1000 ------- 0 2.1 3.0 4 22
- 0.032 2 3 cbr 1000 ------- 0 2.1 3.0 4 22
+ 0.032 3 4 cbr 1000 ------- 0 3.1 4.0 4 23
- 0.032 3 4 cbr 1000 ------- 0 3.1 4.0 4 23
+ 0.032 4 0 cbr 1000 ------- 0 4.1 0.1 4 24
- 0.032 4 0 cbr 1000 ------- 0 4.1 0.1 4 24
r 0.0348 2 3 cbr 1000 ------- 0 2.1 3.0 3 17
r 0.0368 1 2 cbr 1000 ------- 0 1.1 2.0 3 16
+ 0.04 0 1 cbr 1000 ------- 2 0.0 1.0 5 25
- 0.04 0 1 cbr 1000 ------- 2 0.0 1.0 5 25
+ 0.04 1 2 cbr 1000 ------- 0 1.1 2.0 5 26
- 0.04 1 2 cbr 1000 ------- 0 1.1 2.0 5 26
+ 0.04 2 3 cbr 1000 ------- 0 2.1 3.0 5 27
- 0.04 2 3 cbr 1000 ------- 0 2.1 3.0 5 27
+ 0.04 3 4 cbr 1000 ------- 0 3.1 4.0 5 28
- 0.04 3 4 cbr 1000 ------- 0 3.1 4.0 5 28
+ 0.04 4 0 cbr 1000 ------- 0 4.1 0.1 5 29
- 0.04 4 0 cbr 1000 ------- 0 4.1 0.1 5 29
r 0.0408 0 1 cbr 1000 ------- 2 0.0 1.0 0 0
r 0.0408 3 4 cbr 1000 ------- 0 3.1 4.0 0 3
r 0.0408 4 0 cbr 1000 ------- 0 4.1 0.1 0 4
r 0.0428 2 3 cbr 1000 ------- 0 2.1 3.0 4 22
r 0.0448 1 2 cbr 1000 ------- 0 1.1 2.0 4 21
+ 0.048 0 1 cbr 1000 ------- 2 0.0 1.0 6 30
- 0.048 0 1 cbr 1000 ------- 2 0.0 1.0 6 30
+ 0.048 1 2 cbr 1000 ------- 0 1.1 2.0 6 31
- 0.048 1 2 cbr 1000 ------- 0 1.1 2.0 6 31
+ 0.048 2 3 cbr 1000 ------- 0 2.1 3.0 6 32
- 0.048 2 3 cbr 1000 ------- 0 2.1 3.0 6 32
+ 0.048 3 4 cbr 1000 ------- 0 3.1 4.0 6 33
- 0.048 3 4 cbr 1000 ------- 0 3.1 4.0 6 33
+ 0.048 4 0 cbr 1000 ------- 0 4.1 0.1 6 34
- 0.048 4 0 cbr 1000 ------- 0 4.1 0.1 6 34
r 0.0488 0 1 cbr 1000 ------- 2 0.0 1.0 1 5
r 0.0488 3 4 cbr 1000 ------- 0 3.1 4.0 1 8
r 0.0488 4 0 cbr 1000 ------- 0 4.1 0.1 1 9
r 0.0508 2 3 cbr 1000 ------- 0 2.1 3.0 5 27
r 0.0528 1 2 cbr 1000 ------- 0 1.1 2.0 5 26
+ 0.056 0 1 cbr 1000 ------- 2 0.0 1.0 7 35
- 0.056 0 1 cbr 1000 ------- 2 0.0 1.0 7 35
+ 0.056 1 2 cbr 1000 ------- 0 1.1 2.0 7 36
- 0.056 1 2 cbr 1000 ------- 0 1.1 2.0 7 36
+ 0.056 2 3 cbr 1000 ------- 0 2.1 3.0 7 37
- 0.056 2 3 cbr 1000 ------- 0 2.1 3.0 7 37
+ 0.056 3 4 cbr 1000 ------- 0 3.1 4.0 7 38
- 0.056 3 4 cbr 1000 ------- 0 3.1 4.0 7 38
+ 0.056 4 0 cbr 1000 ------- 0 4.1 0.1 7 39
- 0.056 4 0 cbr 1000 ------- 0 4.1 0.1 7 39
r 0.0568 0 1 cbr 1000 ------- 2 0.0 1.0 2 10
r 0.0568 3 4 cbr 1000 ------- 0 3.1 4.0 2 13
r 0.0568 4 0 cbr 1000 ------- 0 4.1 0.1 2 14
r 0.0588 2 3 cbr 1000 ------- 0 2.1 3.0 6 32
r 0.0608 1 2 cbr 1000 ------- 0 1.1 2.0 6 31
+ 0.064 0 1 cbr 1000 ------- 2 0.0 1.0 8 40
- 0.064 0 1 cbr 1000 ------- 2 0.0 1.0 8 40
+ 0.064 1 2 cbr 1000 ------- 0 1.1 2.0 8 41
- 0.064 1 2 cbr 1000 ------- 0 1.1 2.0 8 41
+ 0.064 2 3 cbr 1000 ------- 0 2.1 3.0 8 42
- 0.064 2 3 cbr 1000 ------- 0 2.1 3.0 8 42
+ 0.064 3 4 cbr 1000 ------- 0 3.1 4.0 8 43
- 0.064 3 4 cbr 1000 ------- 0 3.1 4.0 8 43
+ 0.064 4 0 cbr 1000 ------- 0 4.1 0.1 8 44
- 0.064 4 0 cbr 1000 ------- 0 4.1 0.1 8 44
r 0.0648 0 1 cbr 1000 ------- 2 0.0 1.0 3 15
r 0.0648 3 4 cbr 1000 ------- 0 3.1 4.0 3 18
r 0.0648 4 0 cbr 1000 ------- 0 4.1 0.1 3 19
r 0.0668 2 3 cbr 1000 ------- 0 2.1 3.0 7 37
r 0.0688 1 2 cbr 1000 ------- 0 1.1 2.0 7 36
+ 0.072 0 1 cbr 1000 ------- 2 0.0 1.0 9 45
- 0.072 0 1 cbr 1000 ------- 2 0.0 1.0 9 45
+ 0.072 1 2 cbr 1000 ------- 0 1.1 2.0 9 46
- 0.072 1 2 cbr 1000 ------- 0 1.1 2.0 9 46
+ 0.072 2 3 cbr 1000 ------- 0 2.1 3.0 9 47
- 0.072 2 3 cbr 1000 ------- 0 2.1 3.0 9 47
+ 0.072 3 4 cbr 1000 ------- 0 3.1 4.0 9 48
- 0.072 3 4 cbr 1000 ------- 0 3.1 4.0 9 48
+ 0.072 4 0 cbr 1000 ------- 0 4.1 0.1 9 49
- 0.072 4 0 cbr 1000 ------- 0 4.1 0.1 9 49
r 0.0728 0 1 cbr 1000 ------- 2 0.0 1.0 4 20
r 0.0728 3 4 cbr 1000 ------- 0 3.1 4.0 4 23
r 0.0728 4 0 cbr 1000 ------- 0 4.1 0.1 4 24
r 0.0748 2 3 cbr 1000 ------- 0 2.1 3.0 8 42
r 0.0768 1 2 cbr 1000 ------- 0 1.1 2.0 8 41
+ 0.08 0 1 cbr 1000 ------- 2 0.0 1.0 10 50
- 0.08 0 1 cbr 1000 ------- 2 0.0 1.0 10 50
+ 0.08 1 2 cbr 1000 ------- 0 1.1 2.0 10 51
- 0.08 1 2 cbr 1000 ------- 0 1.1 2.0 10 51
+ 0.08 2 3 cbr 1000 ------- 0 2.1 3.0 10 52
- 0.08 2 3 cbr 1000 ------- 0 2.1 3.0 10 52
+ 0.08 3 4 cbr 1000 ------- 0 3.1 4.0 10 53
- 0.08 3 4 cbr 1000 ------- 0 3.1 4.0 10 53
+ 0.08 4 0 cbr 1000 ------- 0 4.1 0.1 10 54
- 0.08 4 0 cbr 1000 ------- 0 4.1 0.1 10 54
r 0.0808 0 1 cbr 1000 ------- 2 0.0 1.0 5 25
r 0.0808 3 4 cbr 1000 ------- 0 3.1 4.0 5 28
r 0.0808 4 0 cbr 1000 ------- 0 4.1 0.1 5 29
r 0.0828 2 3 cbr 1000 ------- 0 2.1 3.0 9 47
r 0.0848 1 2 cbr 1000 ------- 0 1.1 2.0 9 46
+ 0.088 0 1 cbr 1000 ------- 2 0.0 1.0 11 55
- 0.088 0 1 cbr 1000 ------- 2 0.0 1.0 11 55
+ 0.088 1 2 cbr 1000 ------- 0 1.1 2.0 11 56
- 0.088 1 2 cbr 1000 ------- 0 1.1 2.0 11 56
+ 0.088 2 3 cbr 1000 ------- 0 2.1 3.0 11 57
- 0.088 2 3 cbr 1000 ------- 0 2.1 3.0 11 57
+ 0.088 3 4 cbr 1000 ------- 0 3.1 4.0 11 58
- 0.088 3 4 cbr 1000 ------- 0 3.1 4.0 11 58
+ 0.088 4 0 cbr 1000 ------- 0 4.1 0.1 11 59
- 0.088 4 0 cbr 1000 ------- 0 4.1 0.1 11 59
r 0.0888 0 1 cbr 1000 ------- 2 0.0 1.0 6 30
r 0.0888 3 4 cbr 1000 ------- 0 3.1 4.0 6 33
r 0.0888 4 0 cbr 1000 ------- 0 4.1 0.1 6 34
r 0.0908 2 3 cbr 1000 ------- 0 2.1 3.0 10 52
r 0.0928 1 2 cbr 1000 ------- 0 1.1 2.0 10 51
+ 0.096 0 1 cbr 1000 ------- 2 0.0 1.0 12 60
- 0.096 0 1 cbr 1000 ------- 2 0.0 1.0 12 60
+ 0.096 1 2 cbr 1000 ------- 0 1.1 2.0 12 61
- 0.096 1 2 cbr 1000 ------- 0 1.1 2.0 12 61
+ 0.096 2 3 cbr 1000 ------- 0 2.1 3.0 12 62
- 0.096 2 3 cbr 1000 ------- 0 2.1 3.0 12 62
+ 0.096 3 4 cbr 1000 ------- 0 3.1 4.0 12 63
- 0.096 3 4 cbr 1000 ------- 0 3.1 4.0 12 63
+ 0.096 4 0 cbr 1000 ------- 0 4.1 0.1 12 64
- 0.096 4 0 cbr 1000 ------- 0 4.1 0.1 12 64
r 0.0968 0 1 cbr 1000 ------- 2 0.0 1.0 7 35
r 0.0968 3 4 cbr 1000 ------- 0 3.1 4.0 7 38
r 0.0968 4 0 cbr 1000 ------- 0 4.1 0.1 7 39
r 0.0988 2 3 cbr 1000 ------- 0 2.1 3.0 11 57
r 0.1008 1 2 cbr 1000 ------- 0 1.1 2.0 11 56
+ 0.104 0 1 cbr 1000 ------- 2 0.0 1.0 13 65
- 0.104 0 1 cbr 1000 ------- 2 0.0 1.0 13 65
+ 0.104 1 2 cbr 1000 ------- 0 1.1 2.0 13 66
- 0.104 1 2 cbr 1000 ------- 0 1.1 2.0 13 66
+ 0.104 2 3 cbr 1000 ------- 0 2.1 3.0 13 67
- 0.104 2 3 cbr 1000 ------- 0 2.1 3.0 13 67
+ 0.104 3 4 cbr 1000 ------- 0 3.1 4.0 13 68
- 0.104 3 4 cbr 1000 ------- 0 3.1 4.0 13 68
+ 0.104 4 0 cbr 1000 ------- 0 4.1 0.1 13 69
- 0.104 4 0 cbr 1000 ------- 0 4.1 0.1 13 69
r 0.1048 0 1 cbr 1000 ------- 2 0.0 1.0 8 40
r 0.1048 3 4 cbr 1000 ------- 0 3.1 4.0 8 43
r 0.1048 4 0 cbr 1000 ------- 0 4.1 0.1 8 44
r 0.1068 2 3 cbr 1000 ------- 0 2.1 3.0 12 62
r 0.1088 1 2 cbr 1000 ------- 0 1.1 2.0 12 61
+ 0.112 0 1 cbr 1000 ------- 2 0.0 1.0 14 70
- 0.112 0 1 cbr 1000 ------- 2 0.0 1.0 14 70
+ 0.112 1 2 cbr 1000 ------- 0 1.1 2.0 14 71
- 0.112 1 2 cbr 1000 ------- 0 1.1 2.0 14 71
+ 0.112 2 3 cbr 1000 ------- 0 2.1 3.0 14 72
- 0.112 2 3 cbr 1000 ------- 0 2.1 3.0 14 72
+ 0.112 3 4 cbr 1000 ------- 0 3.1 4.0 14 73
- 0.112 3 4 cbr 1000 ------- 0 3.1 4.0 14 73
+ 0.112 4 0 cbr 1000 ------- 0 4.1 0.1 14 74
- 0.112 4 0 cbr 1000 ------- 0 4.1 0.1 14 74
r 0.1128 0 1 cbr 1000 ------- 2 0.0 1.0 9 45
r 0.1128 3 4 cbr 1000 ------- 0 3.1 4.0 9 48
r 0.1128 4 0 cbr 1000 ------- 0 4.1 0.1 9 49
r 0.1148 2 3 cbr 1000 ------- 0 2.1 3.0 13 67
r 0.1168 1 2 cbr 1000 ------- 0 1.1 2.0 13 66
+ 0.12 0 1 cbr 1000 ------- 2 0.0 1.0 15 75
- 0.12 0 1 cbr 1000 ------- 2 0.0 1.0 15 75
+ 0.12 1 2 cbr 1000 ------- 0 1.1 2.0 15 76
- 0.12 1 2 cbr 1000 ------- 0 1.1 2.0 15 76
+ 0.12 2 3 cbr 1000 ------- 0 2.1 3.0 15 77
- 0.12 2 3 cbr 1000 ------- 0 2.1 3.0 15 77
+ 0.12 3 4 cbr 1000 ------- 0 3.1 4.0 15 78
- 0.12 3 4 cbr 1000 ------- 0 3.1 4.0 15 78
+ 0.12 4 0 cbr 1000 ------- 0 4.1 0.1 15 79
- 0.12 4 0 cbr 1000 ------- 0 4.1 0.1 15 79
r 0.1208 0 1 cbr 1000 ------- 2 0.0 1.0 10 50
r 0.1208 3 4 cbr 1000 ------- 0 3.1 4.0 10 53
r 0.1208 4 0 cbr 1000 ------- 0 4.1 0.1 10 54
r 0.1228 2 3 cbr 1000 ------- 0 2.1 3.0 14 72
r 0.1248 1 2 cbr 1000 ------- 0 1.1 2.0 14 71
+ 0.128 0 1 cbr 1000 ------- 2 0.0 1.0 16 80
- 0.128 0 1 cbr 1000 ------- 2 0.0 1.0 16 80
+ 0.128 1 2 cbr 1000 ------- 0 1.1 2.0 16 81
- 0.128 1 2 cbr 1000 ------- 0 1.1 2.0 16 81
+ 0.128 2 3 cbr 1000 ------- 0 2.1 3.0 16 82
- 0.128 2 3 cbr 1000 ------- 0 2.1 3.0 16 82
+ 0.128 3 4 cbr 1000 ------- 0 3.1 4.0 16 83
- 0.128 3 4 cbr 1000 ------- 0 3.1 4.0 16 83
+ 0.128 4 0 cbr 1000 ------- 0 4.1 0.1 16 84
- 0.128 4 0 cbr 1000 ------- 0 4.1 0.1 16 84
r 0.1288 0 1 cbr 1000 ------- 2 0.0 1.0 11 55
r 0.1288 3 4 cbr 1000 ------- 0 3.1 4.0 11 58
r 0.1288 4 0 cbr 1000 ------- 0 4.1 0.1 11 59
r 0.1308 2 3 cbr 1000 ------- 0 2.1 3.0 15 77
r 0.1328 1 2 cbr 1000 ------- 0 1.1 2.0 15 76
+ 0.136 0 1 cbr 1000 ------- 2 0.0 1.0 17 85
- 0.136 0 1 cbr 1000 ------- 2 0.0 1.0 17 85
+ 0.136 1 2 cbr 1000 ------- 0 1.1 2.0 17 86
- 0.136 1 2 cbr 1000 ------- 0 1.1 2.0 17 86
+ 0.136 2 3 cbr 1000 ------- 0 2.1 3.0 17 87
- 0.136 2 3 cbr 1000 ------- 0 2.1 3.0 17 87
+ 0.136 3 4 cbr 1000 ------- 0 3.1 4.0 17 88
- 0.136 3 4 cbr 1000 ------- 0 3.1 4.0 17 88
+ 0.136 4 0 cbr 1000 ------- 0 4.1 0.1 17 89
- 0.136 4 0 cbr 1000 ------- 0 4.1 0.1 17 89
r 0.1368 0 1 cbr 1000 ------- 2 0.0 1.0 12 60
r 0.1368 3 4 cbr 1000 ------- 0 3.1 4.0 12 63
r 0.1368 4 0 cbr 1000 ------- 0 4.1 0.1 12 64
r 0.1388 2 3 cbr 1000 ------- 0 2.1 3.0 16 82
r 0.1408 1 2 cbr 1000 ------- 0 1.1 2.0 16 81
+ 0.144 0 1 cbr 1000 ------- 2 0.0 1.0 18 90
- 0.144 0 1 cbr 1000 ------- 2 0.0 1.0 18 90
+ 0.144 1 2 cbr 1000 ------- 0 1.1 2.0 18 91
- 0.144 1 2 cbr 1000 ------- 0 1.1 2.0 18 91
+ 0.144 2 3 cbr 1000 ------- 0 2.1 3.0 18 92
- 0.144 2 3 cbr 1000 ------- 0 2.1 3.0 18 92
+ 0.144 3 4 cbr 1000 ------- 0 3.1 4.0 18 93
- 0.144 3 4 cbr 1000 ------- 0 3.1 4.0 18 93
+ 0.144 4 0 cbr 1000 ------- 0 4.1 0.1 18 94
- 0.144 4 0 cbr 1000 ------- 0 4.1 0.1 18 94
r 0.1448 0 1 cbr 1000 ------- 2 0.0 1.0 13 65
r 0.1448 3 4 cbr 1000 ------- 0 3.1 4.0 13 68
r 0.1448 4 0 cbr 1000 ------- 0 4.1 0.1 13 69
r 0.1468 2 3 cbr 1000 ------- 0 2.1 3.0 17 87
r 0.1488 1 2 cbr 1000 ------- 0 1.1 2.0 17 86
+ 0.152 0 1 cbr 1000 ------- 2 0.0 1.0 19 95
- 0.152 0 1 cbr 1000 ------- 2 0.0 1.0 19 95
+ 0.152 1 2 cbr 1000 ------- 0 1.1 2.0 19 96
- 0.152 1 2 cbr 1000 ------- 0 1.1 2.0 19 96
+ 0.152 2 3 cbr 1000 ------- 0 2.1 3.0 19 97
- 0.152 2 3 cbr 1000 ------- 0 2.1 3.0 19 97
+ 0.152 3 4 cbr 1000 ------- 0 3.1 4.0 19 98
- 0.152 3 4 cbr 1000 ------- 0 3.1 4.0 19 98
+ 0.152 4 0 cbr 1000 ------- 0 4.1 0.1 19 99
- 0.152 4 0 cbr 1000 ------- 0 4.1 0.1 19 99
r 0.1528 0 1 cbr 1000 ------- 2 0.0 1.0 14 70
r 0.1528 3 4 cbr 1000 ------- 0 3.1 4.0 14 73
r 0.1528 4 0 cbr 1000 ------- 0 4.1 0.1 14 74
r 0.1548 2 3 cbr 1000 ------- 0 2.1 3.0 18 92
r 0.1568 1 2 cbr 1000 ------- 0 1.1 2.0 18 91
+ 0.16 0 1 cbr 1000 ------- 2 0.0 1.0 20 100
- 0.16 0 1 cbr 1000 ------- 2 0.0 1.0 20 100
+ 0.16 1 2 cbr 1000 ------- 0 1.1 2.0 20 101
- 0.16 1 2 cbr 1000 ------- 0 1.1 2.0 20 101
+ 0.16 2 3 cbr 1000 ------- 0 2.1 3.0 20 102
- 0.16 2 3 cbr 1000 ------- 0 2.1 3.0 20 102
+ 0.16 3 4 cbr 1000 ------- 0 3.1 4.0 20 103
- 0.16 3 4 cbr 1000 ------- 0 3.1 4.0 20 103
+ 0.16 4 0 cbr 1000 ------- 0 4.1 0.1 20 104
- 0.16 4 0 cbr 1000 ------- 0 4.1 0.1 20 104
r 0.1608 0 1 cbr 1000 ------- 2 0.0 1.0 15 75
r 0.1608 3 4 cbr 1000 ------- 0 3.1 4.0 15 78
r 0.1608 4 0 cbr 1000 ------- 0 4.1 0.1 15 79
r 0.1628 2 3 cbr 1000 ------- 0 2.1 3.0 19 97
r 0.1648 1 2 cbr 1000 ------- 0 1.1 2.0 19 96
+ 0.168 0 1 cbr 1000 ------- 2 0.0 1.0 21 105
- 0.168 0 1 cbr 1000 ------- 2 0.0 1.0 21 105
+ 0.168 1 2 cbr 1000 ------- 0 1.1 2.0 21 106
- 0.168 1 2 cbr 1000 ------- 0 1.1 2.0 21 106
+ 0.168 2 3 cbr 1000 ------- 0 2.1 3.0 21 107
- 0.168 2 3 cbr 1000 ------- 0 2.1 3.0 21 107
+ 0.168 3 4 cbr 1000 ------- 0 3.1 4.0 21 108
- 0.168 3 4 cbr 1000 ------- 0 3.1 4.0 21 108
+ 0.168 4 0 cbr 1000 ------- 0 4.1 0.1 21 109
- 0.168 4 0 cbr 1000 ------- 0 4.1 0.1 21 109
r 0.1688 0 1 cbr 1000 ------- 2 0.0 1.0 16 80
r 0.1688 3 4 cbr 1000 ------- 0 3.1 4.0 16 83
r 0.1688 4 0 cbr 1000 ------- 0 4.1 0.1 16 84
r 0.1708 2 3 cbr 1000 ------- 0 2.1 3.0 20 102
r 0.1728 1 2 cbr 1000 ------- 0 1.1 2.0 20 101
+ 0.176 0 1 cbr 1000 ------- 2 0.0 1.0 22 110
- 0.176 0 1 cbr 1000 ------- 2 0.0 1.0 22 110
+ 0.176 1 2 cbr 1000 ------- 0 1.1 2.0 22 111
- 0.176 1 2 cbr 1000 ------- 0 1.1 2.0 22 111
+ 0.176 2 3 cbr 1000 ------- 0 2.1 3.0 22 112
- 0.176 2 3 cbr 1000 ------- 0 2.1 3.0 22 112
+ 0.176 3 4 cbr 1000 ------- 0 3.1 4.0 22 113
- 0.176 3 4 cbr 1000 ------- 0 3.1 4.0 22 113
+ 0.176 4 0 cbr 1000 ------- 0 4.1 0.1 22 114
- 0.176 4 0 cbr 1000 ------- 0 4.1 0.1 22 114
r 0.1768 0 1 cbr 1000 ------- 2 0.0 1.0 17 85
r 0.1768 3 4 cbr 1000 ------- 0 3.1 4.0 17 88
r 0.1768 4 0 cbr 1000 ------- 0 4.1 0.1 17 89
r 0.1788 2 3 cbr 1000 ------- 0 2.1 3.0 21 107
r 0.1808 1 2 cbr 1000 ------- 0 1.1 2.0 21 106
+ 0.184 0 1 cbr 1000 ------- 2 0.0 1.0 23 115
- 0.184 0 1 cbr 1000 ------- 2 0.0 1.0 23 115
+ 0.184 1 2 cbr 1000 ------- 0 1.1 2.0 23 116
- 0.184 1 2 cbr 1000 ------- 0 1.1 2.0 23 116
+ 0.184 2 3 cbr 1000 ------- 0 2.1 3.0 23 117
- 0.184 2 3 cbr 1000 ------- 0 2.1 3.0 23 117
+ 0.184 3 4 cbr 1000 ------- 0 3.1 4.0 23 118
- 0.184 3 4 cbr 1000 ------- 0 3.1 4.0 23 118
+ 0.184 4 0 cbr 1000 ------- 0 4.1 0.1 23 119
- 0.184 4 0 cbr 1000 ------- 0 4.1 0.1 23 119
r 0.1848 0 1 cbr 1000 ------- 2 0.0 1.0 18 90
r 0.1848 3 4 cbr 1000 ------- 0 3.1 4.0 18 93
r 0.1848 4 0 cbr 1000 ------- 0 4.1 0.1 18 94
r 0.1868 2 3 cbr 1000 ------- 0 2.1 3.0 22 112
r 0.1888 1 2 cbr 1000 ------- 0 1.1 2.0 22 111
+ 0.192 0 1 cbr 1000 ------- 2 0.0 1.0 24 120
- 0.192 0 1 cbr 1000 ------- 2 0.0 1.0 24 120
+ 0.192 1 2 cbr 1000 ------- 0 1.1 2.0 24 121
- 0.192 1 2 cbr 1000 ------- 0 1.1 2.0 24 121
+ 0.192 2 3 cbr 1000 ------- 0 2.1 3.0 24 122
- 0.192 2 3 cbr 1000 ------- 0 2.1 3.0 24 122
+ 0.192 3 4 cbr 1000 ------- 0 3.1 4.0 24 123
- 0.192 3 4 cbr 1000 ------- 0 3.1 4.0 24 123
+ 0.192 4 0 cbr 1000 ------- 0 4.1 0.1 24 124
- 0.192 4 0 cbr 1000 ------- 0 4.1 0.1 24 124
r 0.1928 0 1 cbr 1000 ------- 2 0.0 1.0 19 95
r 0.1928 3 4 cbr 1000 ------- 0 3.1 4.0 19 98
r 0.1928 4 0 cbr 1000 ------- 0 4.1 0.1 19 99
r 0.1948 2 3 cbr 1000 ------- 0 2.1 3.0 23 117
r 0.1968 1 2 cbr 1000 ------- 0 1.1 2.0 23 116
+ 0.2 0 1 cbr 1000 ------- 2 0.0 1.0 25 125
- 0.2 0 1 cbr 1000 ------- 2 0.0 1.0 25 125
+ 0.2 1 2 cbr 1000 ------- 0 1.1 2.0 25 126
- 0.2 1 2 cbr 1000 ------- 0 1.1 2.0 25 126
+ 0.2 2 3 cbr 1000 ------- 0 2.1 3.0 25 127
- 0.2 2 3 cbr 1000 ------- 0 2.1 3.0 25 127
+ 0.2 3 4 cbr 1000 ------- 0 3.1 4.0 25 128
- 0.2 3 4 cbr 1000 ------- 0 3.1 4.0 25 128
+ 0.2 4 0 cbr 1000 ------- 0 4.1 0.1 25 129
- 0.2 4 0 cbr 1000 ------- 0 4.1 0.1 25 129
r 0.2008 0 1 cbr 1000 ------- 2 0.0 1.0 20 100
r 0.2008 3 4 cbr 1000 ------- 0 3.1 4.0 20 103
r 0.2008 4 0 cbr 1000 ------- 0 4.1 0.1 20 104
r 0.2028 2 3 cbr 1000 ------- 0 2.1 3.0 24 122
r 0.2048 1 2 cbr 1000 ------- 0 1.1 2.0 24 121
+ 0.208 0 1 cbr 1000 ------- 2 0.0 1.0 26 130
- 0.208 0 1 cbr 1000 ------- 2 0.0 1.0 26 130
+ 0.208 1 2 cbr 1000 ------- 0 1.1 2.0 26 131
- 0.208 1 2 cbr 1000 ------- 0 1.1 2.0 26 131
+ 0.208 2 3 cbr 1000 ------- 0 2.1 3.0 26 132
- 0.208 2 3 cbr 1000 ------- 0 2.1 3.0 26 132
+ 0.208 3 4 cbr 1000 ------- 0 3.1 4.0 26 133
- 0.208 3 4 cbr 1000 ------- 0 3.1 4.0 26 133
+ 0.208 4 0 cbr 1000 ------- 0 4.1 0.1 26 134
- 0.208 4 0 cbr 1000 ------- 0 4.1 0.1 26 134
r 0.2088 0 1 cbr 1000 ------- 2 0.0 1.0 21 105
r 0.2088 3 4 cbr 1000 ------- 0 3.1 4.0 21 108
r 0.2088 4 0 cbr 1000 ------- 0 4.1 0.1 21 109
r 0.2108 2 3 cbr 1000 ------- 0 2.1 3.0 25 127
r 0.2128 1 2 cbr 1000 ------- 0 1.1 2.0 25 126
+ 0.216 0 1 cbr 1000 ------- 2 0.0 1.0 27 135
- 0.216 0 1 cbr 1000 ------- 2 0.0 1.0 27 135
+ 0.216 1 2 cbr 1000 ------- 0 1.1 2.0 27 136
- 0.216 1 2 cbr 1000 ------- 0 1.1 2.0 27 136
+ 0.216 2 3 cbr 1000 ------- 0 2.1 3.0 27 137
- 0.216 2 3 cbr 1000 ------- 0 2.1 3.0 27 137
+ 0.216 3 4 cbr 1000 ------- 0 3.1 4.0 27 138
- 0.216 3 4 cbr 1000 ------- 0 3.1 4.0 27 138
+ 0.216 4 0 cbr 1000 ------- 0 4.1 0.1 27 139
- 0.216 4 0 cbr 1000 ------- 0 4.1 0.1 27 139
r 0.2168 0 1 cbr 1000 ------- 2 0.0 1.0 22 110
r 0.2168 3 4 cbr 1000 ------- 0 3.1 4.0 22 113
r 0.2168 4 0 cbr 1000 ------- 0 4.1 0.1 22 114
r 0.2188 2 3 cbr 1000 ------- 0 2.1 3.0 26 132
r 0.2208 1 2 cbr 1000 ------- 0 1.1 2.0 26 131
+ 0.224 0 1 cbr 1000 ------- 2 0.0 1.0 28 140
- 0.224 0 1 cbr 1000 ------- 2 0.0 1.0 28 140
+ 0.224 1 2 cbr 1000 ------- 0 1.1 2.0 28 141
- 0.224 1 2 cbr 1000 ------- 0 1.1 2.0 28 141
+ 0.224 2 3 cbr 1000 ------- 0 2.1 3.0 28 142
- 0.224 2 3 cbr 1000 ------- 0 2.1 3.0 28 142
+ 0.224 3 4 cbr 1000 ------- 0 3.1 4.0 28 143
- 0.224 3 4 cbr 1000 ------- 0 3.1 4.0 28 143
+ 0.224 4 0 cbr 1000 ------- 0 4.1 0.1 28 144
- 0.224 4 0 cbr 1000 ------- 0 4.1 0.1 28 144
r 0.2248 0 1 cbr 1000 ------- 2 0.0 1.0 23 115
r 0.2248 3 4 cbr 1000 ------- 0 3.1 4.0 23 118
r 0.2248 4 0 cbr 1000 ------- 0 4.1 0.1 23 119
r 0.2268 2 3 cbr 1000 ------- 0 2.1 3.0 27 137
r 0.2288 1 2 cbr 1000 ------- 0 1.1 2.0 27 136
+ 0.232 0 1 cbr 1000 ------- 2 0.0 1.0 29 145
- 0.232 0 1 cbr 1000 ------- 2 0.0 1.0 29 145
+ 0.232 1 2 cbr 1000 ------- 0 1.1 2.0 29 146
- 0.232 1 2 cbr 1000 ------- 0 1.1 2.0 29 146
+ 0.232 2 3 cbr 1000 ------- 0 2.1 3.0 29 147
- 0.232 2 3 cbr 1000 ------- 0 2.1 3.0 29 147
+ 0.232 3 4 cbr 1000 ------- 0 3.1 4.0 29 148
- 0.232 3 4 cbr 1000 ------- 0 3.1 4.0 29 148
+ 0.232 4 0 cbr 1000 ------- 0 4.1 0.1 29 149
- 0.232 4 0 cbr 1000 ------- 0 4.1 0.1 29 149
r 0.2328 0 1 cbr 1000 ------- 2 0.0 1.0 24 120
r 0.2328 3 4 cbr 1000 ------- 0 3.1 4.0 24 123
r 0.2328 4 0 cbr 1000 ------- 0 4.1 0.1 24 124
r 0.2348 2 3 cbr 1000 ------- 0 2.1 3.0 28 142
r 0.2368 1 2 cbr 1000 ------- 0 1.1 2.0 28 141
+ 0.24 0 1 cbr 1000 ------- 2 0.0 1.0 30 150
- 0.24 0 1 cbr 1000 ------- 2 0.0 1.0 30 150
+ 0.24 1 2 cbr 1000 ------- 0 1.1 2.0 30 151
- 0.24 1 2 cbr 1000 ------- 0 1.1 2.0 30 151
+ 0.24 2 3 cbr 1000 ------- 0 2.1 3.0 30 152
- 0.24 2 3 cbr 1000 ------- 0 2.1 3.0 30 152
+ 0.24 3 4 cbr 1000 ------- 0 3.1 4.0 30 153
- 0.24 3 4 cbr 1000 ------- 0 3.1 4.0 30 153
+ 0.24 4 0 cbr 1000 ------- 0 4.1 0.1 30 154
- 0.24 4 0 cbr 1000 ------- 0 4.1 0.1 30 154
r 0.2408 0 1 cbr 1000 ------- 2 0.0 1.0 25 125
r 0.2408 3 4 cbr 1000 ------- 0 3.1 4.0 25 128
r 0.2408 4 0 cbr 1000 ------- 0 4.1 0.1 25 129
r 0.2428 2 3 cbr 1000 ------- 0 2.1 3.0 29 147
r 0.2448 1 2 cbr 1000 ------- 0 1.1 2.0 29 146
+ 0.248 0 1 cbr 1000 ------- 2 0.0 1.0 31 155
- 0.248 0 1 cbr 1000 ------- 2 0.0 1.0 31 155
+ 0.248 1 2 cbr 1000 ------- 0 1.1 2.0 31 156
- 0.248 1 2 cbr 1000 ------- 0 1.1 2.0 31 156
+ 0.248 2 3 cbr 1000 ------- 0 2.1 3.0 31 157
- 0.248 2 3 cbr 1000 ------- 0 2.1 3.0 31 157
+ 0.248 3 4 cbr 1000 ------- 0 3.1 4.0 31 158
- 0.248 3 4 cbr 1000 ------- 0 3.1 4.0 31 158
+ 0.248 4 0 cbr 1000 ------- 0 4.1 0.1 31 159
- 0.248 4 0 cbr 1000 ------- 0 4.1 0.1 31 159
r 0.2488 0 1 cbr 1000 ------- 2 0.0 1.0 26 130
r 0.2488 3 4 cbr 1000 ------- 0 3.1 4.0 26 133
r 0.2488 4 0 cbr 1000 ------- 0 4.1 0.1 26 134
r 0.2508 2 3 cbr 1000 ------- 0 2.1 3.0 30 152
r 0.2528 1 2 cbr 1000 ------- 0 1.1 2.0 30 151
+ 0.256 0 1 cbr 1000 ------- 2 0.0 1.0 32 160
- 0.256 0 1 cbr 1000 ------- 2 0.0 1.0 32 160
+ 0.256 1 2 cbr 1000 ------- 0 1.1 2.0 32 161
- 0.256 1 2 cbr 1000 ------- 0 1.1 2.0 32 161
+ 0.256 2 3 cbr 1000 ------- 0 2.1 3.0 32 162
- 0.256 2 3 cbr 1000 ------- 0 2.1 3.0 32 162
+ 0.256 3 4 cbr 1000 ------- 0 3.1 4.0 32 163
- 0.256 3 4 cbr 1000 ------- 0 3.1 4.0 32 163
+ 0.256 4 0 cbr 1000 ------- 0 4.1 0.1 32 164
- 0.256 4 0 cbr 1000 ------- 0 4.1 0.1 32 164
r 0.2568 0 1 cbr 1000 ------- 2 0.0 1.0 27 135
r 0.2568 3 4 cbr 1000 ------- 0 3.1 4.0 27 138
r 0.2568 4 0 cbr 1000 ------- 0 4.1 0.1 27 139
r 0.2588 2 3 cbr 1000 ------- 0 2.1 3.0 31 157
r 0.2608 1 2 cbr 1000 ------- 0 1.1 2.0 31 156
+ 0.264 0 1 cbr 1000 ------- 2 0.0 1.0 33 165
- 0.264 0 1 cbr 1000 ------- 2 0.0 1.0 33 165
+ 0.264 1 2 cbr 1000 ------- 0 1.1 2.0 33 166
- 0.264 1 2 cbr 1000 ------- 0 1.1 2.0 33 166
+ 0.264 2 3 cbr 1000 ------- 0 2.1 3.0 33 167
- 0.264 2 3 cbr 1000 ------- 0 2.1 3.0 33 167
+ 0.264 3 4 cbr 1000 ------- 0 3.1 4.0 33 168
- 0.264 3 4 cbr 1000 ------- 0 3.1 4.0 33 168
+ 0.264 4 0 cbr 1000 ------- 0 4.1 0.1 33 169
- 0.264 4 0 cbr 1000 ------- 0 4.1 0.1 33 169
r 0.2648 0 1 cbr 1000 ------- 2 0.0 1.0 28 140
r 0.2648 3 4 cbr 1000 ------- 0 3.1 4.0 28 143
r 0.2648 4 0 cbr 1000 ------- 0 4.1 0.1 28 144
r 0.2668 2 3 cbr 1000 ------- 0 2.1 3.0 32 162
r 0.2688 1 2 cbr 1000 ------- 0 1.1 2.0 32 161
+ 0.272 0 1 cbr 1000 ------- 2 0.0 1.0 34 170
- 0.272 0 1 cbr 1000 ------- 2 0.0 1.0 34 170
+ 0.272 1 2 cbr 1000 ------- 0 1.1 2.0 34 171
- 0.272 1 2 cbr 1000 ------- 0 1.1 2.0 34 171
+ 0.272 2 3 cbr 1000 ------- 0 2.1 3.0 34 172
- 0.272 2 3 cbr 1000 ------- 0 2.1 3.0 34 172
+ 0.272 3 4 cbr 1000 ------- 0 3.1 4.0 34 173
- 0.272 3 4 cbr 1000 ------- 0 3.1 4.0 34 173
+ 0.272 4 0 cbr 1000 ------- 0 4.1 0.1 34 174
- 0.272 4 0 cbr 1000 ------- 0 4.1 0.1 34 174
r 0.2728 0 1 cbr 1000 ------- 2 0.0 1.0 29 145
r 0.2728 3 4 cbr 1000 ------- 0 3.1 4.0 29 148
r 0.2728 4 0 cbr 1000 ------- 0 4.1 0.1 29 149
r 0.2748 2 3 cbr 1000 ------- 0 2.1 3.0 33 167
r 0.2768 1 2 cbr 1000 ------- 0 1.1 2.0 33 166
+ 0.28 0 1 cbr 1000 ------- 2 0.0 1.0 35 175
- 0.28 0 1 cbr 1000 ------- 2 0.0 1.0 35 175
+ 0.28 1 2 cbr 1000 ------- 0 1.1 2.0 35 176
- 0.28 1 2 cbr 1000 ------- 0 1.1 2.0 35 176
+ 0.28 2 3 cbr 1000 ------- 0 2.1 3.0 35 177
- 0.28 2 3 cbr 1000 ------- 0 2.1 3.0 35 177
+ 0.28 3 4 cbr 1000 ------- 0 3.1 4.0 35 178
- 0.28 3 4 cbr 1000 ------- 0 3.1 4.0 35 178
+ 0.28 4 0 cbr 1000 ------- 0 4.1 0.1 35 179
- 0.28 4 0 cbr 1000 ------- 0 4.1 0.1 35 179
r 0.2808 0 1 cbr 1000 ------- 2 0.0 1.0 30 150
r 0.2808 3 4 cbr 1000 ------- 0 3.1 4.0 30 153
r 0.2808 4 0 cbr 1000 ------- 0 4.1 0.1 30 154
r 0.2828 2 3 cbr 1000 ------- 0 2.1 3.0 34 172
r 0.2848 1 2 cbr 1000 ------- 0 1.1 2.0 34 171
+ 0.288 0 1 cbr 1000 ------- 2 0.0 1.0 36 180
- 0.288 0 1 cbr 1000 ------- 2 0.0 1.0 36 180
+ 0.288 1 2 cbr 1000 ------- 0 1.1 2.0 36 181
- 0.288 1 2 cbr 1000 ------- 0 1.1 2.0 36 181
+ 0.288 2 3 cbr 1000 ------- 0 2.1 3.0 36 182
- 0.288 2 3 cbr 1000 ------- 0 2.1 3.0 36 182
+ 0.288 3 4 cbr 1000 ------- 0 3.1 4.0 36 183
- 0.288 3 4 cbr 1000 ------- 0 3.1 4.0 36 183
+ 0.288 4 0 cbr 1000 ------- 0 4.1 0.1 36 184
- 0.288 4 0 cbr 1000 ------- 0 4.1 0.1 36 184
r 0.2888 0 1 cbr 1000 ------- 2 0.0 1.0 31 155
r 0.2888 3 4 cbr 1000 ------- 0 3.1 4.0 31 158
r 0.2888 4 0 cbr 1000 ------- 0 4.1 0.1 31 159
r 0.2908 2 3 cbr 1000 ------- 0 2.1 3.0 35 177
r 0.2928 1 2 cbr 1000 ------- 0 1.1 2.0 35 176
+ 0.296 0 1 cbr 1000 ------- 2 0.0 1.0 37 185
- 0.296 0 1 cbr 1000 ------- 2 0.0 1.0 37 185
+ 0.296 1 2 cbr 1000 ------- 0 1.1 2.0 37 186
- 0.296 1 2 cbr 1000 ------- 0 1.1 2.0 37 186
+ 0.296 2 3 cbr 1000 ------- 0 2.1 3.0 37 187
- 0.296 2 3 cbr 1000 ------- 0 2.1 3.0 37 187
+ 0.296 3 4 cbr 1000 ------- 0 3.1 4.0 37 188
- 0.296 3 4 cbr 1000 ------- 0 3.1 4.0 37 188
+ 0.296 4 0 cbr 1000 ------- 0 4.1 0.1 37 189
- 0.296 4 0 cbr 1000 ------- 0 4.1 0.1 37 189
r 0.2968 0 1 cbr 1000 ------- 2 0.0 1.0 32 160
r 0.2968 3 4 cbr 1000 ------- 0 3.1 4.0 32 163
r 0.2968 4 0 cbr 1000 ------- 0 4.1 0.1 32 164
r 0.2988 2 3 cbr 1000 ------- 0 2.1 3.0 36 182
r 0.3008 1 2 cbr 1000 ------- 0 1.1 2.0 36 181
+ 0.304 0 1 cbr 1000 ------- 2 0.0 1.0 38 190
- 0.304 0 1 cbr 1000 ------- 2 0.0 1.0 38 190
+ 0.304 1 2 cbr 1000 ------- 0 1.1 2.0 38 191
- 0.304 1 2 cbr 1000 ------- 0 1.1 2.0 38 191
+ 0.304 2 3 cbr 1000 ------- 0 2.1 3.0 38 192
- 0.304 2 3 cbr 1000 ------- 0 2.1 3.0 38 192
+ 0.304 3 4 cbr 1000 ------- 0 3.1 4.0 38 193
- 0.304 3 4 cbr 1000 ------- 0 3.1 4.0 38 193
+ 0.304 4 0 cbr 1000 ------- 0 4.1 0.1 38 194
- 0.304 4 0 cbr 1000 ------- 0 4.1 0.1 38 194
r 0.3048 0 1 cbr 1000 ------- 2 0.0 1.0 33 165
r 0.3048 3 4 cbr 1000 ------- 0 3.1 4.0 33 168
r 0.3048 4 0 cbr 1000 ------- 0 4.1 0.1 33 169
r 0.3068 2 3 cbr 1000 ------- 0 2.1 3.0 37 187
r 0.3088 1 2 cbr 1000 ------- 0 1.1 2.0 37 186
+ 0.312 0 1 cbr 1000 ------- 2 0.0 1.0 39 195
- 0.312 0 1 cbr 1000 ------- 2 0.0 1.0 39 195
+ 0.312 1 2 cbr 1000 ------- 0 1.1 2.0 39 196
- 0.312 1 2 cbr 1000 ------- 0 1.1 2.0 39 196
+ 0.312 2 3 cbr 1000 ------- 0 2.1 3.0 39 197
- 0.312 2 3 cbr 1000 ------- 0 2.1 3.0 39 197
+ 0.312 3 4 cbr 1000 ------- 0 3.1 4.0 39 198
- 0.312 3 4 cbr 1000 ------- 0 3.1 4.0 39 198
+ 0.312 4 0 cbr 1000 ------- 0 4.1 0.1 39 199
- 0.312 4 0 cbr 1000 ------- 0 4.1 0.1 39 199
r 0.3128 0 1 cbr 1000 ------- 2 0.0 1.0 34 170
r 0.3128 3 4 cbr 1000 ------- 0 3.1 4.0 34 173
r 0.3128 4 0 cbr 1000 ------- 0 4.1 0.1 34 174
r 0.3148 2 3 cbr 1000 ------- 0 2.1 3.0 38 192
r 0.3168 1 2 cbr 1000 ------- 0 1.1 2.0 38 191
+ 0.32 0 1 cbr 1000 ------- 2 0.0 1.0 40 200
- 0.32 0 1 cbr 1000 ------- 2 0.0 1.0 40 200
+ 0.32 1 2 cbr 1000 ------- 0 1.1 2.0 40 201
- 0.32 1 2 cbr 1000 ------- 0 1.1 2.0 40 201
+ 0.32 2 3 cbr 1000 ------- 0 2.1 3.0 40 202
- 0.32 2 3 cbr 1000 ------- 0 2.1 3.0 40 202
+ 0.32 3 4 cbr 1000 ------- 0 3.1 4.0 40 203
- 0.32 3 4 cbr 1000 ------- 0 3.1 4.0 40 203
+ 0.32 4 0 cbr 1000 ------- 0 4.1 0.1 40 204
- 0.32 4 0 cbr 1000 ------- 0 4.1 0.1 40 204
r 0.3208 0 1 cbr 1000 ------- 2 0.0 1.0 35 175
r 0.3208 3 4 cbr 1000 ------- 0 3.1 4.0 35 178
r 0.3208 4 0 cbr 1000 ------- 0 4.1 0.1 35 179
r 0.3228 2 3 cbr 1000 ------- 0 2.1 3.0 39 197
r 0.3248 1 2 cbr 1000 ------- 0 1.1 2.0 39 196
+ 0.328 0 1 cbr 1000 ------- 2 0.0 1.0 41 205
- 0.328 0 1 cbr 1000 ------- 2 0.0 1.0 41 205
+ 0.328 1 2 cbr 1000 ------- 0 1.1 2.0 41 206
- 0.328 1 2 cbr 1000 ------- 0 1.1 2.0 41 206
+ 0.328 2 3 cbr 1000 ------- 0 2.1 3.0 41 207
- 0.328 2 3 cbr 1000 ------- 0 2.1 3.0 41 207
+ 0.328 3 4 cbr 1000 ------- 0 3.1 4.0 41 208
- 0.328 3 4 cbr 1000 ------- 0 3.1 4.0 41 208
+ 0.328 4 0 cbr 1000 ------- 0 4.1 0.1 41 209
- 0.328 4 0 cbr 1000 ------- 0 4.1 0.1 41 209
r 0.3288 0 1 cbr 1000 ------- 2 0.0 1.0 36 180
r 0.3288 3 4 cbr 1000 ------- 0 3.1 4.0 36 183
r 0.3288 4 0 cbr 1000 ------- 0 4.1 0.1 36 184
r 0.3308 2 3 cbr 1000 ------- 0 2.1 3.0 40 202
r 0.3328 1 2 cbr 1000 ------- 0 1.1 2.0 40 201
+ 0.336 0 1 cbr 1000 ------- 2 0.0 1.0 42 210
- 0.336 0 1 cbr 1000 ------- 2 0.0 1.0 42 210
+ 0.336 1 2 cbr 1000 ------- 0 1.1 2.0 42 211
- 0.336 1 2 cbr 1000 ------- 0 1.1 2.0 42 211
+ 0.336 2 3 cbr 1000 ------- 0 2.1 3.0 42 212
- 0.336 2 3 cbr 1000 ------- 0 2.1 3.0 42 212
+ 0.336 3 4 cbr 1000 ------- 0 3.1 4.0 42 213
- 0.336 3 4 cbr 1000 ------- 0 3.1 4.0 42 213
+ 0.336 4 0 cbr 1000 ------- 0 4.1 0.1 42 214
- 0.336 4 0 cbr 1000 ------- 0 4.1 0.1 42 214
r 0.3368 0 1 cbr 1000 ------- 2 0.0 1.0 37 185
r 0.3368 3 4 cbr 1000 ------- 0 3.1 4.0 37 188
r 0.3368 4 0 cbr 1000 ------- 0 4.1 0.1 37 189
r 0.3388 2 3 cbr 1000 ------- 0 2.1 3.0 41 207
r 0.3408 1 2 cbr 1000 ------- 0 1.1 2.0 41 206
+ 0.344 0 1 cbr 1000 ------- 2 0.0 1.0 43 215
- 0.344 0 1 cbr 1000 ------- 2 0.0 1.0 43 215
+ 0.344 1 2 cbr 1000 ------- 0 1.1 2.0 43 216
- 0.344 1 2 cbr 1000 ------- 0 1.1 2.0 43 216
+ 0.344 2 3 cbr 1000 ------- 0 2.1 3.0 43 217
- 0.344 2 3 cbr 1000 ------- 0 2.1 3.0 43 217
+ 0.344 3 4 cbr 1000 ------- 0 3.1 4.0 43 218
- 0.344 3 4 cbr 1000 ------- 0 3.1 4.0 43 218
+ 0.344 4 0 cbr 1000 ------- 0 4.1 0.1 43 219
- 0.344 4 0 cbr 1000 ------- 0 4.1 0.1 43 219
r 0.3448 0 1 cbr 1000 ------- 2 0.0 1.0 38 190
r 0.3448 3 4 cbr 1000 ------- 0 3.1 4.0 38 193
r 0.3448 4 0 cbr 1000 ------- 0 4.1 0.1 38 194
r 0.3468 2 3 cbr 1000 ------- 0 2.1 3.0 42 212
r 0.3488 1 2 cbr 1000 ------- 0 1.1 2.0 42 211
+ 0.352 0 1 cbr 1000 ------- 2 0.0 1.0 44 220
- 0.352 0 1 cbr 1000 ------- 2 0.0 1.0 44 220
+ 0.352 1 2 cbr 1000 ------- 0 1.1 2.0 44 221
- 0.352 1 2 cbr 1000 ------- 0 1.1 2.0 44 221
+ 0.352 2 3 cbr 1000 ------- 0 2.1 3.0 44 222
- 0.352 2 3 cbr 1000 ------- 0 2.1 3.0 44 222
+ 0.352 3 4 cbr 1000 ------- 0 3.1 4.0 44 223
- 0.352 3 4 cbr 1000 ------- 0 3.1 4.0 44 223
+ 0.352 4 0 cbr 1000 ------- 0 4.1 0.1 44 224
- 0.352 4 0 cbr 1000 ------- 0 4.1 0.1 44 224
r 0.3528 0 1 cbr 1000 ------- 2 0.0 1.0 39 195
r 0.3528 3 4 cbr 1000 ------- 0 3.1 4.0 39 198
r 0.3528 4 0 cbr 1000 ------- 0 4.1 0.1 39 199
r 0.3548 2 3 cbr 1000 ------- 0 2.1 3.0 43 217
r 0.3568 1 2 cbr 1000 ------- 0 1.1 2.0 43 216
+ 0.36 0 1 cbr 1000 ------- 2 0.0 1.0 45 225
- 0.36 0 1 cbr 1000 ------- 2 0.0 1.0 45 225