V -t * -v 1.0a5 -a 0
A -t * -n 1 -p 0 -o 0x7fffffff -c 30 -a 1
A -t * -h 1 -m 1073741823 -s 0
c -t * -i 2 -n red
n -t * -a 4 -s 4 -S UP -v circle -c black -i black
n -t * -a 0 -s 0 -S UP -v circle -c black -i black
n -t * -a 1 -s 1 -S UP -v circle -c black -i black
n -t * -a 2 -s 2 -S UP -v circle -c black -i black
n -t * -a 3 -s 3 -S UP -v circle -c black -i black
l -t * -s 0 -d 1 -S UP -r 10000000 -D 0.040000000000000001 -c black -o right
l -t * -s 1 -d 2 -S UP -r 10000000 -D 0.012 -c black -o down
l -t * -s 2 -d 3 -S UP -r 10000000 -D 0.01 -c black -o down
l -t * -s 3 -d 4 -S UP -r 10000000 -D 0.040000000000000001 -c black -o left
l -t * -s 4 -d 0 -S UP -r 10000000 -D 0.040000000000000001 -c black -o up
+ -t 0 -s 0 -d 1 -p cbr -e 1000 -c 2 -i 0 -a 2 -x {0.0 1.0 0 ------- null}
- -t 0 -s 0 -d 1 -p cbr -e 1000 -c 2 -i 0 -a 2 -x {0.0 1.0 0 ------- null}
h -t 0 -s 0 -d 1 -p cbr -e 1000 -c 2 -i 0 -a 2 -x {0.0 1.0 -1 ------- null}
+ -t 0 -s 1 -d 2 -p cbr -e 1000 -c 0 -i 1 -a 0 -x {1.1 2.0 0 ------- null}
- -t 0 -s 1 -d 2 -p cbr -e 1000 -c 0 -i 1 -a 0 -x {1.1 2.0 0 ------- null}
h -t 0 -s 1 -d 2 -p cbr -e 1000 -c 0 -i 1 -a 0 -x {1.1 2.0 -1 ------- null}
+ -t 0 -s 2 -d 3 -p cbr -e 1000 -c 0 -i 2 -a 0 -x {2.1 3.0 0 ------- null}
- -t 0 -s 2 -d 3 -p cbr -e 1000 -c 0 -i 2 -a 0 -x {2.1 3.0 0 ------- null}
h -t 0 -s 2 -d 3 -p cbr -e 1000 -c 0 -i 2 -a 0 -x {2.1 3.0 -1 ------- null}
+ -t 0 -s 3 -d 4 -p cbr -e 1000 -c 0 -i 3 -a 0 -x {3.1 4.0 0 ------- null}
- -t 0 -s 3 -d 4 -p cbr -e 1000 -c 0 -i 3 -a 0 -x {3.1 4.0 0 ------- null}
h -t 0 -s 3 -d 4 -p cbr -e 1000 -c 0 -i 3 -a 0 -x {3.1 4.0 -1 ------- null}
+ -t 0 -s 4 -d 0 -p cbr -e 1000 -c 0 -i 4 -a 0 -x {4.1 0.1 0 ------- null}
- -t 0 -s 4 -d 0 -p cbr -e 1000 -c 0 -i 4 -a 0 -x {4.1 0.1 0 ------- null}
h -t 0 -s 4 -d 0 -p cbr -e 1000 -c 0 -i 4 -a 0 -x {4.1 0.1 -1 ------- null}
+ -t 0.008 -s 0 -d 1 -p cbr -e 1000 -c 2 -i 5 -a 2 -x {0.0 1.0 1 ------- null}
- -t 0.008 -s 0 -d 1 -p cbr -e 1000 -c 2 -i 5 -a 2 -x {0.0 1.0 1 ------- null}
h -t 0.008 -s 0 -d 1 -p cbr -e 1000 -c 2 -i 5 -a 2 -x {0.0 1.0 -1 ------- null}
+ -t 0.008 -s 1 -d 2 -p cbr -e 1000 -c 0 -i 6 -a 0 -x {1.1 2.0 1 ------- null}
- -t 0.008 -s 1 -d 2 -p cbr -e 1000 -c 0 -i 6 -a 0 -x {1.1 2.0 1 ------- null}
h -t 0.008 -s 1 -d 2 -p cbr -e 1000 -c 0 -i 6 -a 0 -x {1.1 2.0 -1 ------- null}
+ -t 0.008 -s 2 -d 3 -p cbr -e 1000 -c 0 -i 7 -a 0 -x {2.1 3.0 1 ------- null}
- -t 0.008 -s 2 -d 3 -p cbr -e 1000 -c 0 -i 7 -a 0 -x {2.1 3.0 1 ------- null}
h -t 0.008 -s 2 -d 3 -p cbr -e 1000 -c 0 -i 7 -a 0 -x {2.1 3.0 -1 ------- null}
+ -t 0.008 -s 3 -d 4 -p cbr -e 1000 -c 0 -i 8 -a 0 -x {3.1 4.0 1 ------- null}
- -t 0.008 -s 3 -d 4 -p cbr -e 1000 -c 0 -i 8 -a 0 -x {3.1 4.0 1 ------- null}
h -t 0.008 -s 3 -d 4 -p cbr -e 1000 -c 0 -i 8 -a 0 -x {3.1 4.0 -1 ------- null}
+ -t 0.008 -s 4 -d 0 -p cbr -e 1000 -c 0 -i 9 -a 0 -x {4.1 0.1 1 ------- null}
- -t 0.008 -s 4 -d 0 -p cbr -e 1000 -c 0 -i 9 -a 0 -x {4.1 0.1 1 ------- null}
h -t 0.008 -s 4 -d 0 -p cbr -e 1000 -c 0 -i 9 -a 0 -x {4.1 0.1 -1 ------- null}
r -t 0.0108 -s 2 -d 3 -p cbr -e 1000 -c 0 -i 2 -a 0 -x {2.1 3.0 0 ------- null}
r -t 0.0128 -s 1 -d 2 -p cbr -e 1000 -c 0 -i 1 -a 0 -x {1.1 2.0 0 ------- null}
+ -t 0.016 -s 0 -d 1 -p cbr -e 1000 -c 2 -i 10 -a 2 -x {0.0 1.0 2 ------- null}
- -t 0.016 -s 0 -d 1 -p cbr -e 1000 -c 2 -i 10 -a 2 -x {0.0 1.0 2 ------- null}
h -t 0.016 -s 0 -d 1 -p cbr -e 1000 -c 2 -i 10 -a 2 -x {0.0 1.0 -1 ------- null}
+ -t 0.016 -s 1 -d 2 -p cbr -e 1000 -c 0 -i 11 -a 0 -x {1.1 2.0 2 ------- null}
- -t 0.016 -s 1 -d 2 -p cbr -e 1000 -c 0 -i 11 -a 0 -x {1.1 2.0 2 ------- null}
h -t 0.016 -s 1 -d 2 -p cbr -e 1000 -c 0 -i 11 -a 0 -x {1.1 2.0 -1 ------- null}
+ -t 0.016 -s 2 -d 3 -p cbr -e 1000 -c 0 -i 12 -a 0 -x {2.1 3.0 2 ------- null}
- -t 0.016 -s 2 -d 3 -p cbr -e 1000 -c 0 -i 12 -a 0 -x {2.1 3.0 2 ------- null}
h -t 0.016 -s 2 -d 3 -p cbr -e 1000 -c 0 -i 12 -a 0 -x {2.1 3.0 -1 ------- null}
+ -t 0.016 -s 3 -d 4 -p cbr -e 1000 -c 0 -i 13 -a 0 -x {3.1 4.0 2 ------- null}
- -t 0.016 -s 3 -d 4 -p cbr -e 1000 -c 0 -i 13 -a 0 -x {3.1 4.0 2 ------- null}
h -t 0.016 -s 3 -d 4 -p cbr -e 1000 -c 0 -i 13 -a 0 -x {3.1 4.0 -1 ------- null}
+ -t 0.016 -s 4 -d 0 -p cbr -e 1000 -c 0 -i 14 -a 0 -x {4.1 0.1 2 ------- null}
- -t 0.016 -s 4 -d 0 -p cbr -e 1000 -c 0 -i 14 -a 0 -x {4.1 0.1 2 ------- null}
h -t 0.016 -s 4 -d 0 -p cbr -e 1000 -c 0 -i 14 -a 0 -x {4.1 0.1 -1 ------- null}
r -t 0.0188 -s 2 -d 3 -p cbr -e 1000 -c 0 -i 7 -a 0 -x {2.1 3.0 1 ------- null}
r -t 0.0208 -s 1 -d 2 -p cbr -e 1000 -c 0 -i 6 -a 0 -x {1.1 2.0 1 ------- null}
+ -t 0.024 -s 0 -d 1 -p cbr -e 1000 -c 2 -i 15 -a 2 -x {0.0 1.0 3 ------- null}
- -t 0.024 -s 0 -d 1 -p cbr -e 1000 -c 2 -i 15 -a 2 -x {0.0 1.0 3 ------- null}
h -t 0.024 -s 0 -d 1 -p cbr -e 1000 -c 2 -i 15 -a 2 -x {0.0 1.0 -1 ------- null}
+ -t 0.024 -s 1 -d 2 -p cbr -e 1000 -c 0 -i 16 -a 0 -x {1.1 2.0 3 ------- null}
- -t 0.024 -s 1 -d 2 -p cbr -e 1000 -c 0 -i 16 -a 0 -x {1.1 2.0 3 ------- null}
h -t 0.024 -s 1 -d 2 -p cbr -e 1000 -c 0 -i 16 -a 0 -x {1.1 2.0 -1 ------- null}
+ -t 0.024 -s 2 -d 3 -p cbr -e 1000 -c 0 -i 17 -a 0 -x {2.1 3.0 3 ------- null}
- -t 0.024 -s 2 -d 3 -p cbr -e 1000 -c 0 -i 17 -a 0 -x {2.1 3.0 3 ------- null}
h -t 0.024 -s 2 -d 3 -p cbr -e 1000 -c 0 -i 17 -a 0 -x {2.1 3.0 -1 ------- null}
+ -t 0.024 -s 3 -d 4 -p cbr -e 1000 -c 0 -i 18 -a 0 -x {3.1 4.0 3 ------- null}
- -t 0.024 -s 3 -d 4 -p cbr -e 1000 -c 0 -i 18 -a 0 -x {3.1 4.0 3 ------- null}
h -t 0.024 -s 3 -d 4 -p cbr -e 1000 -c 0 -i 18 -a 0 -x {3.1 4.0 -1 ------- null}
+ -t 0.024 -s 4 -d 0 -p cbr -e 1000 -c 0 -i 19 -a 0 -x {4.1 0.1 3 ------- null}
- -t 0.024 -s 4 -d 0 -p cbr -e 1000 -c 0 -i 19 -a 0 -x {4.1 0.1 3 ------- null}
h -t 0.024 -s 4 -d 0 -p cbr -e 1000 -c 0 -i 19 -a 0 -x {4.1 0.1 -1 ------- null}
r -t 0.0268 -s 2 -d 3 -p cbr -e 1000 -c 0 -i 12 -a 0 -x {2.1 3.0 2 ------- null}
r -t 0.0288 -s 1 -d 2 -p cbr -e 1000 -c 0 -i 11 -a 0 -x {1.1 2.0 2 ------- null}
+ -t 0.032 -s 0 -d 1 -p cbr -e 1000 -c 2 -i 20 -a 2 -x {0.0 1.0 4 ------- null}
- -t 0.032 -s 0 -d 1 -p cbr -e 1000 -c 2 -i 20 -a 2 -x {0.0 1.0 4 ------- null}
h -t 0.032 -s 0 -d 1 -p cbr -e 1000 -c 2 -i 20 -a 2 -x {0.0 1.0 -1 ------- null}
+ -t 0.032 -s 1 -d 2 -p cbr -e 1000 -c 0 -i 21 -a 0 -x {1.1 2.0 4 ------- null}
- -t 0.032 -s 1 -d 2 -p cbr -e 1000 -c 0 -i 21 -a 0 -x {1.1 2.0 4 ------- null}
h -t 0.032 -s 1 -d 2 -p cbr -e 1000 -c 0 -i 21 -a 0 -x {1.1 2.0 -1 ------- null}
+ -t 0.032 -s 2 -d 3 -p cbr -e 1000 -c 0 -i 22 -a 0 -x {2.1 3.0 4 ------- null}
- -t 0.032 -s 2 -d 3 -p cbr -e 1000 -c 0 -i 22 -a 0 -x {2.1 3.0 4 ------- null}
h -t 0.032 -s 2 -d 3 -p cbr -e 1000 -c 0 -i 22 -a 0 -x {2.1 3.0 -1 ------- null}
+ -t 0.032 -s 3 -d 4 -p cbr -e 1000 -c 0 -i 23 -a 0 -x {3.1 4.0 4 ------- null}
- -t 0.032 -s 3 -d 4 -p cbr -e 1000 -c 0 -i 23 -a 0 -x {3.1 4.0 4 ------- null}
h -t 0.032 -s 3 -d 4 -p cbr -e 1000 -c 0 -i 23 -a 0 -x {3.1 4.0 -1 ------- null}
+ -t 0.032 -s 4 -d 0 -p cbr -e 1000 -c 0 -i 24 -a 0 -x {4.1 0.1 4 ------- null}
- -t 0.032 -s 4 -d 0 -p cbr -e 1000 -c 0 -i 24 -a 0 -x {4.1 0.1 4 ------- null}
h -t 0.032 -s 4 -d 0 -p cbr -e 1000 -c 0 -i 24 -a 0 -x {4.1 0.1 -1 ------- null}
r -t 0.0348 -s 2 -d 3 -p cbr -e 1000 -c 0 -i 17 -a 0 -x {2.1 3.0 3 ------- null}
r -t 0.0368 -s 1 -d 2 -p cbr -e 1000 -c 0 -i 16 -a 0 -x {1.1 2.0 3 ------- null}
+ -t 0.04 -s 0 -d 1 -p cbr -e 1000 -c 2 -i 25 -a 2 -x {0.0 1.0 5 ------- null}
- -t 0.04 -s 0 -d 1 -p cbr -e 1000 -c 2 -i 25 -a 2 -x {0.0 1.0 5 ------- null}
h -t 0.04 -s 0 -d 1 -p cbr -e 1000 -c 2 -i 25 -a 2 -x {0.0 1.0 -1 ------- null}
+ -t 0.04 -s 1 -d 2 -p cbr -e 1000 -c 0 -i 26 -a 0 -x {1.1 2.0 5 ------- null}
- -t 0.04 -s 1 -d 2 -p cbr -e 1000 -c 0 -i 26 -a 0 -x {1.1 2.0 5 ------- null}
h -t 0.04 -s 1 -d 2 -p cbr -e 1000 -c 0 -i 26 -a 0 -x {1.1 2.0 -1 ------- null}
+ -t 0.04 -s 2 -d 3 -p cbr -e 1000 -c 0 -i 27 -a 0 -x {2.1 3.0 5 ------- null}
- -t 0.04 -s 2 -d 3 -p cbr -e 1000 -c 0 -i 27 -a 0 -x {2.1 3.0 5 ------- null}
h -t 0.04 -s 2 -d 3 -p cbr -e 1000 -c 0 -i 27 -a 0 -x {2.1 3.0 -1 ------- null}
+ -t 0.04 -s 3 -d 4 -p cbr -e 1000 -c 0 -i 28 -a 0 -x {3.1 4.0 5 ------- null}
- -t 0.04 -s 3 -d 4 -p cbr -e 1000 -c 0 -i 28 -a 0 -x {3.1 4.0 5 ------- null}
h -t 0.04 -s 3 -d 4 -p cbr -e 1000 -c 0 -i 28 -a 0 -x {3.1 4.0 -1 ------- null}
+ -t 0.04 -s 4 -d 0 -p cbr -e 1000 -c 0 -i 29 -a 0 -x {4.1 0.1 5 ------- null}
- -t 0.04 -s 4 -d 0 -p cbr -e 1000 -c 0 -i 29 -a 0 -x {4.1 0.1 5 ------- null}
h -t 0.04 -s 4 -d 0 -p cbr -e 1000 -c 0 -i 29 -a 0 -x {4.1 0.1 -1 ------- null}
r -t 0.0408 -s 0 -d 1 -p cbr -e 1000 -c 2 -i 0 -a 2 -x {0.0 1.0 0 ------- null}
r -t 0.0408 -s 3 -d 4 -p cbr -e 1000 -c 0 -i 3 -a 0 -x {3.1 4.0 0 ------- null}
r -t 0.0408 -s 4 -d 0 -p cbr -e 1000 -c 0 -i 4 -a 0 -x {4.1 0.1 0 ------- null}
r -t 0.0428 -s 2 -d 3 -p cbr -e 1000 -c 0 -i 22 -a 0 -x {2.1 3.0 4 ------- null}
r -t 0.0448 -s 1 -d 2 -p cbr -e 1000 -c 0 -i 21 -a 0 -x {1.1 2.0 4 ------- null}
+ -t 0.048 -s 0 -d 1 -p cbr -e 1000 -c 2 -i 30 -a 2 -x {0.0 1.0 6 ------- null}
- -t 0.048 -s 0 -d 1 -p cbr -e 1000 -c 2 -i 30 -a 2 -x {0.0 1.0 6 ------- null}
h -t 0.048 -s 0 -d 1 -p cbr -e 1000 -c 2 -i 30 -a 2 -x {0.0 1.0 -1 ------- null}
+ -t 0.048 -s 1 -d 2 -p cbr -e 1000 -c 0 -i 31 -a 0 -x {1.1 2.0 6 ------- null}
- -t 0.048 -s 1 -d 2 -p cbr -e 1000 -c 0 -i 31 -a 0 -x {1.1 2.0 6 ------- null}
h -t 0.048 -s 1 -d 2 -p cbr -e 1000 -c 0 -i 31 -a 0 -x {1.1 2.0 -1 ------- null}
+ -t 0.048 -s 2 -d 3 -p cbr -e 1000 -c 0 -i 32 -a 0 -x {2.1 3.0 6 ------- null}
- -t 0.048 -s 2 -d 3 -p cbr -e 1000 -c 0 -i 32 -a 0 -x {2.1 3.0 6 ------- null}
h -t 0.048 -s 2 -d 3 -p cbr -e 1000 -c 0 -i 32 -a 0 -x {2.1 3.0 -1 ------- null}
+ -t 0.048 -s 3 -d 4 -p cbr -e 1000 -c 0 -i 33 -a 0 -x {3.1 4.0 6 ------- null}
- -t 0.048 -s 3 -d 4 -p cbr -e 1000 -c 0 -i 33 -a 0 -x {3.1 4.0 6 ------- null}
h -t 0.048 -s 3 -d 4 -p cbr -e 1000 -c 0 -i 33 -a 0 -x {3.1 4.0 -1 ------- null}
+ -t 0.048 -s 4 -d 0 -p cbr -e 1000 -c 0 -i 34 -a 0 -x {4.1 0.1 6 ------- null}
- -t 0.048 -s 4 -d 0 -p cbr -e 1000 -c 0 -i 34 -a 0 -x {4.1 0.1 6 ------- null}
h -t 0.048 -s 4 -d 0 -p cbr -e 1000 -c 0 -i 34 -a 0 -x {4.1 0.1 -1 ------- null}
r -t 0.0488 -s 0 -d 1 -p cbr -e 1000 -c 2 -i 5 -a 2 -x {0.0 1.0 1 ------- null}
r -t 0.0488 -s 3 -d 4 -p cbr -e 1000 -c 0 -i 8 -a 0 -x {3.1 4.0 1 ------- null}
r -t 0.0488 -s 4 -d 0 -p cbr -e 1000 -c 0 -i 9 -a 0 -x {4.1 0.1 1 ------- null}
r -t 0.0508 -s 2 -d 3 -p cbr -e 1000 -c 0 -i 27 -a 0 -x {2.1 3.0 5 ------- null}
r -t 0.0528 -s 1 -d 2 -p cbr -e 1000 -c 0 -i 26 -a 0 -x {1.1 2.0 5 ------- null}
+ -t 0.056 -s 0 -d 1 -p cbr -e 1000 -c 2 -i 35 -a 2 -x {0.0 1.0 7 ------- null}
- -t 0.056 -s 0 -d 1 -p cbr -e 1000 -c 2 -i 35 -a 2 -x {0.0 1.0 7 ------- null}
h -t 0.056 -s 0 -d 1 -p cbr -e 1000 -c 2 -i 35 -a 2 -x {0.0 1.0 -1 ------- null}
+ -t 0.056 -s 1 -d 2 -p cbr -e 1000 -c 0 -i 36 -a 0 -x {1.1 2.0 7 ------- null}
- -t 0.056 -s 1 -d 2 -p cbr -e 1000 -c 0 -i 36 -a 0 -x {1.1 2.0 7 ------- null}
h -t 0.056 -s 1 -d 2 -p cbr -e 1000 -c 0 -i 36 -a 0 -x {1.1 2.0 -1 ------- null}
+ -t 0.056 -s 2 -d 3 -p cbr -e 1000 -c 0 -i 37 -a 0 -x {2.1 3.0 7 ------- null}
- -t 0.056 -s 2 -d 3 -p cbr -e 1000 -c 0 -i 37 -a 0 -x {2.1 3.0 7 ------- null}
h -t 0.056 -s 2 -d 3 -p cbr -e 1000 -c 0 -i 37 -a 0 -x {2.1 3.0 -1 ------- null}
+ -t 0.056 -s 3 -d 4 -p cbr -e 1000 -c 0 -i 38 -a 0 -x {3.1 4.0 7 ------- null}
- -t 0.056 -s 3 -d 4 -p cbr -e 1000 -c 0 -i 38 -a 0 -x {3.1 4.0 7 ------- null}
h -t 0.056 -s 3 -d 4 -p cbr -e 1000 -c 0 -i 38 -a 0 -x {3.1 4.0 -1 ------- null}
+ -t 0.056 -s 4 -d 0 -p cbr -e 1000 -c 0 -i 39 -a 0 -x {4.1 0.1 7 ------- null}
- -t 0.056 -s 4 -d 0 -p cbr -e 1000 -c 0 -i 39 -a 0 -x {4.1 0.1 7 ------- null}
h -t 0.056 -s 4 -d 0 -p cbr -e 1000 -c 0 -i 39 -a 0 -x {4.1 0.1 -1 ------- null}
r -t 0.0568 -s 0 -d 1 -p cbr -e 1000 -c 2 -i 10 -a 2 -x {0.0 1.0 2 ------- null}
r -t 0.0568 -s 3 -d 4 -p cbr -e 1000 -c 0 -i 13 -a 0 -x {3.1 4.0 2 ------- null}
r -t 0.0568 -s 4 -d 0 -p cbr -e 1000 -c 0 -i 14 -a 0 -x {4.1 0.1 2 ------- null}
r -t 0.0588 -s 2 -d 3 -p cbr -e 1000 -c 0 -i 32 -a 0 -x {2.1 3.0 6 ------- null}
r -t 0.0608 -s 1 -d 2 -p cbr -e 1000 -c 0 -i 31 -a 0 -x {1.1 2.0 6 ------- null}
+ -t 0.064 -s 0 -d 1 -p cbr -e 1000 -c 2 -i 40 -a 2 -x {0.0 1.0 8 ------- null}
- -t 0.064 -s 0 -d 1 -p cbr -e 1000 -c 2 -i 40 -a 2 -x {0.0 1.0 8 ------- null}
h -t 0.064 -s 0 -d 1 -p cbr -e 1000 -c 2 -i 40 -a 2 -x {0.0 1.0 -1 ------- null}
+ -t 0.064 -s 1 -d 2 -p cbr -e 1000 -c 0 -i 41 -a 0 -x {1.1 2.0 8 ------- null}
- -t 0.064 -s 1 -d 2 -p cbr -e 1000 -c 0 -i 41 -a 0 -x {1.1 2.0 8 ------- null}
h -t 0.064 -s 1 -d 2 -p cbr -e 1000 -c 0 -i 41 -a 0 -x {1.1 2.0 -1 ------- null}
+ -t 0.064 -s 2 -d 3 -p cbr -e 1000 -c 0 -i 42 -a 0 -x {2.1 3.0 8 ------- null}
- -t 0.064 -s 2 -d 3 -p cbr -e 1000 -c 0 -i 42 -a 0 -x {2.1 3.0 8 ------- null}
h -t 0.064 -s 2 -d 3 -p cbr -e 1000 -c 0 -i 42 -a 0 -x {2.1 3.0 -1 ------- null}
+ -t 0.064 -s 3 -d 4 -p cbr -e 1000 -c 0 -i 43 -a 0 -x {3.1 4.0 8 ------- null}
- -t 0.064 -s 3 -d 4 -p cbr -e 1000 -c 0 -i 43 -a 0 -x {3.1 4.0 8 ------- null}
h -t 0.064 -s 3 -d 4 -p cbr -e 1000 -c 0 -i 43 -a 0 -x {3.1 4.0 -1 ------- null}
+ -t 0.064 -s 4 -d 0 -p cbr -e 1000 -c 0 -i 44 -a 0 -x {4.1 0.1 8 ------- null}
- -t 0.064 -s 4 -d 0 -p cbr -e 1000 -c 0 -i 44 -a 0 -x {4.1 0.1 8 ------- null}
h -t 0.064 -s 4 -d 0 -p cbr -e 1000 -c 0 -i 44 -a 0 -x {4.1 0.1 -1 ------- null}
r -t 0.0648 -s 0 -d 1 -p cbr -e 1000 -c 2 -i 15 -a 2 -x {0.0 1.0 3 ------- null}
r -t 0.0648 -s 3 -d 4 -p cbr -e 1000 -c 0 -i 18 -a 0 -x {3.1 4.0 3 ------- null}
r -t 0.0648 -s 4 -d 0 -p cbr -e 1000 -c 0 -i 19 -a 0 -x {4.1 0.1 3 ------- null}
r -t 0.0668 -s 2 -d 3 -p cbr -e 1000 -c 0 -i 37 -a 0 -x {2.1 3.0 7 ------- null}
r -t 0.0688 -s 1 -d 2 -p cbr -e 1000 -c 0 -i 36 -a 0 -x {1.1 2.0 7 ------- null}
+ -t 0.072 -s 0 -d 1 -p cbr -e 1000 -c 2 -i 45 -a 2 -x {0.0 1.0 9 ------- null}
- -t 0.072 -s 0 -d 1 -p cbr -e 1000 -c 2 -i 45 -a 2 -x {0.0 1.0 9 ------- null}
h -t 0.072 -s 0 -d 1 -p cbr -e 1000 -c 2 -i 45 -a 2 -x {0.0 1.0 -1 ------- null}
+ -t 0.072 -s 1 -d 2 -p cbr -e 1000 -c 0 -i 46 -a 0 -x {1.1 2.0 9 ------- null}
- -t 0.072 -s 1 -d 2 -p cbr -e 1000 -c 0 -i 46 -a 0 -x {1.1 2.0 9 ------- null}
h -t 0.072 -s 1 -d 2 -p cbr -e 1000 -c 0 -i 46 -a 0 -x {1.1 2.0 -1 ------- null}
+ -t 0.072 -s 2 -d 3 -p cbr -e 1000 -c 0 -i 47 -a 0 -x {2.1 3.0 9 ------- null}
- -t 0.072 -s 2 -d 3 -p cbr -e 1000 -c 0 -i 47 -a 0 -x {2.1 3.0 9 ------- null}
h -t 0.072 -s 2 -d 3 -p cbr -e 1000 -c 0 -i 47 -a 0 -x {2.1 3.0 -1 ------- null}
+ -t 0.072 -s 3 -d 4 -p cbr -e 1000 -c 0 -i 48 -a 0 -x {3.1 4.0 9 ------- null}
- -t 0.072 -s 3 -d 4 -p cbr -e 1000 -c 0 -i 48 -a 0 -x {3.1 4.0 9 ------- null}
h -t 0.072 -s 3 -d 4 -p cbr -e 1000 -c 0 -i 48 -a 0 -x {3.1 4.0 -1 ------- null}
+ -t 0.072 -s 4 -d 0 -p cbr -e 1000 -c 0 -i 49 -a 0 -x {4.1 0.1 9 ------- null}
- -t 0.072 -s 4 -d 0 -p cbr -e 1000 -c 0 -i 49 -a 0 -x {4.1 0.1 9 ------- null}
h -t 0.072 -s 4 -d 0 -p cbr -e 1000 -c 0 -i 49 -a 0 -x {4.1 0.1 -1 ------- null}
r -t 0.0728 -s 0 -d 1 -p cbr -e 1000 -c 2 -i 20 -a 2 -x {0.0 1.0 4 ------- null}
r -t 0.0728 -s 3 -d 4 -p cbr -e 1000 -c 0 -i 23 -a 0 -x {3.1 4.0 4 ------- null}
r -t 0.0728 -s 4 -d 0 -p cbr -e 1000 -c 0 -i 24 -a 0 -x {4.1 0.1 4 ------- null}
r -t 0.0748 -s 2 -d 3 -p cbr -e 1000 -c 0 -i 42 -a 0 -x {2.1 3.0 8 ------- null}
r -t 0.0768 -s 1 -d 2 -p cbr -e 1000 -c 0 -i 41 -a 0 -x {1.1 2.0 8 ------- null}
+ -t 0.08 -s 0 -d 1 -p cbr -e 1000 -c 2 -i 50 -a 2 -x {0.0 1.0 10 ------- null}
- -t 0.08 -s 0 -d 1 -p cbr -e 1000 -c 2 -i 50 -a 2 -x {0.0 1.0 10 ------- null}
h -t 0.08 -s 0 -d 1 -p cbr -e 1000 -c 2 -i 50 -a 2 -x {0.0 1.0 -1 ------- null}
+ -t 0.08 -s 1 -d 2 -p cbr -e 1000 -c 0 -i 51 -a 0 -x {1.1 2.0 10 ------- null}
- -t 0.08 -s 1 -d 2 -p cbr -e 1000 -c 0 -i 51 -a 0 -x {1.1 2.0 10 ------- null}
h -t 0.08 -s 1 -d 2 -p cbr -e 1000 -c 0 -i 51 -a 0 -x {1.1 2.0 -1 ------- null}
+ -t 0.08 -s 2 -d 3 -p cbr -e 1000 -c 0 -i 52 -a 0 -x {2.1 3.0 10 ------- null}
- -t 0.08 -s 2 -d 3 -p cbr -e 1000 -c 0 -i 52 -a 0 -x {2.1 3.0 10 ------- null}
h -t 0.08 -s 2 -d 3 -p cbr -e 1000 -c 0 -i 52 -a 0 -x {2.1 3.0 -1 ------- null}
+ -t 0.08 -s 3 -d 4 -p cbr -e 1000 -c 0 -i 53 -a 0 -x {3.1 4.0 10 ------- null}
- -t 0.08 -s 3 -d 4 -p cbr -e 1000 -c 0 -i 53 -a 0 -x {3.1 4.0 10 ------- null}
h -t 0.08 -s 3 -d 4 -p cbr -e 1000 -c 0 -i 53 -a 0 -x {3.1 4.0 -1 ------- null}
+ -t 0.08 -s 4 -d 0 -p cbr -e 1000 -c 0 -i 54 -a 0 -x {4.1 0.1 10 ------- null}
- -t 0.08 -s 4 -d 0 -p cbr -e 1000 -c 0 -i 54 -a 0 -x {4.1 0.1 10 ------- null}
h -t 0.08 -s 4 -d 0 -p cbr -e 1000 -c 0 -i 54 -a 0 -x {4.1 0.1 -1 ------- null}
r -t 0.0808 -s 0 -d 1 -p cbr -e 1000 -c 2 -i 25 -a 2 -x {0.0 1.0 5 ------- null}
r -t 0.0808 -s 3 -d 4 -p cbr -e 1000 -c 0 -i 28 -a 0 -x {3.1 4.0 5 ------- null}
r -t 0.0808 -s 4 -d 0 -p cbr -e 1000 -c 0 -i 29 -a 0 -x {4.1 0.1 5 ------- null}
r -t 0.0828 -s 2 -d 3 -p cbr -e 1000 -c 0 -i 47 -a 0 -x {2.1 3.0 9 ------- null}
r -t 0.0848 -s 1 -d 2 -p cbr -e 1000 -c 0 -i 46 -a 0 -x {1.1 2.0 9 ------- null}
+ -t 0.088 -s 0 -d 1 -p cbr -e 1000 -c 2 -i 55 -a 2 -x {0.0 1.0 11 ------- null}
- -t 0.088 -s 0 -d 1 -p cbr -e 1000 -c 2 -i 55 -a 2 -x {0.0 1.0 11 ------- null}
h -t 0.088 -s 0 -d 1 -p cbr -e 1000 -c 2 -i 55 -a 2 -x {0.0 1.0 -1 ------- null}
+ -t 0.088 -s 1 -d 2 -p cbr -e 1000 -c 0 -i 56 -a 0 -x {1.1 2.0 11 ------- null}
- -t 0.088 -s 1 -d 2 -p cbr -e 1000 -c 0 -i 56 -a 0 -x {1.1 2.0 11 ------- null}
h -t 0.088 -s 1 -d 2 -p cbr -e 1000 -c 0 -i 56 -a 0 -x {1.1 2.0 -1 ------- null}
+ -t 0.088 -s 2 -d 3 -p cbr -e 1000 -c 0 -i 57 -a 0 -x {2.1 3.0 11 ------- null}
- -t 0.088 -s 2 -d 3 -p cbr -e 1000 -c 0 -i 57 -a 0 -x {2.1 3.0 11 ------- null}
h -t 0.088 -s 2 -d 3 -p cbr -e 1000 -c 0 -i 57 -a 0 -x {2.1 3.0 -1 ------- null}
+ -t 0.088 -s 3 -d 4 -p cbr -e 1000 -c 0 -i 58 -a 0 -x {3.1 4.0 11 ------- null}
- -t 0.088 -s 3 -d 4 -p cbr -e 1000 -c 0 -i 58 -a 0 -x {3.1 4.0 11 ------- null}
h -t 0.088 -s 3 -d 4 -p cbr -e 1000 -c 0 -i 58 -a 0 -x {3.1 4.0 -1 ------- null}
+ -t 0.088 -s 4 -d 0 -p cbr -e 1000 -c 0 -i 59 -a 0 -x {4.1 0.1 11 ------- null}
- -t 0.088 -s 4 -d 0 -p cbr -e 1000 -c 0 -i 59 -a 0 -x {4.1 0.1 11 ------- null}
h -t 0.088 -s 4 -d 0 -p cbr -e 1000 -c 0 -i 59 -a 0 -x {4.1 0.1 -1 ------- null}
r -t 0.0888 -s 0 -d 1 -p cbr -e 1000 -c 2 -i 30 -a 2 -x {0.0 1.0 6 ------- null}
r -t 0.0888 -s 3 -d 4 -p cbr -e 1000 -c 0 -i 33 -a 0 -x {3.1 4.0 6 ------- null}
r -t 0.0888 -s 4 -d 0 -p cbr -e 1000 -c 0 -i 34 -a 0 -x {4.1 0.1 6 ------- null}
r -t 0.0908 -s 2 -d 3 -p cbr -e 1000 -c 0 -i 52 -a 0 -x {2.1 3.0 10 ------- null}
r -t 0.0928 -s 1 -d 2 -p cbr -e 1000 -c 0 -i 51 -a 0 -x {1.1 2.0 10 ------- null}
+ -t 0.096 -s 0 -d 1 -p cbr -e 1000 -c 2 -i 60 -a 2 -x {0.0 1.0 12 ------- null}
- -t 0.096 -s 0 -d 1 -p cbr -e 1000 -c 2 -i 60 -a 2 -x {0.0 1.0 12 ------- null}
h -t 0.096 -s 0 -d 1 -p cbr -e 1000 -c 2 -i 60 -a 2 -x {0.0 1.0 -1 ------- null}
+ -t 0.096 -s 1 -d 2 -p cbr -e 1000 -c 0 -i 61 -a 0 -x {1.1 2.0 12 ------- null}
- -t 0.096 -s 1 -d 2 -p cbr -e 1000 -c 0 -i 61 -a 0 -x {1.1 2.0 12 ------- null}
h -t 0.096 -s 1 -d 2 -p cbr -e 1000 -c 0 -i 61 -a 0 -x {1.1 2.0 -1 ------- null}
+ -t 0.096 -s 2 -d 3 -p cbr -e 1000 -c 0 -i 62 -a 0 -x {2.1 3.0 12 ------- null}
- -t 0.096 -s 2 -d 3 -p cbr -e 1000 -c 0 -i 62 -a 0 -x {2.1 3.0 12 ------- null}
h -t 0.096 -s 2 -d 3 -p cbr -e 1000 -c 0 -i 62 -a 0 -x {2.1 3.0 -1 ------- null}
+ -t 0.096 -s 3 -d 4 -p cbr -e 1000 -c 0 -i 63 -a 0 -x {3.1 4.0 12 ------- null}
- -t 0.096 -s 3 -d 4 -p cbr -e 1000 -c 0 -i 63 -a 0 -x {3.1 4.0 12 ------- null}
h -t 0.096 -s 3 -d 4 -p cbr -e 1000 -c 0 -i 63 -a 0 -x {3.1 4.0 -1 ------- null}
+ -t 0.096 -s 4 -d 0 -p cbr -e 1000 -c 0 -i 64 -a 0 -x {4.1 0.1 12 ------- null}
- -t 0.096 -s 4 -d 0 -p cbr -e 1000 -c 0 -i 64 -a 0 -x {4.1 0.1 12 ------- null}
h -t 0.096 -s 4 -d 0 -p cbr -e 1000 -c 0 -i 64 -a 0 -x {4.1 0.1 -1 ------- null}
r -t 0.0968 -s 0 -d 1 -p cbr -e 1000 -c 2 -i 35 -a 2 -x {0.0 1.0 7 ------- null}
r -t 0.0968 -s 3 -d 4 -p cbr -e 1000 -c 0 -i 38 -a 0 -x {3.1 4.0 7 ------- null}
r -t 0.0968 -s 4 -d 0 -p cbr -e 1000 -c 0 -i 39 -a 0 -x {4.1 0.1 7 ------- null}
r -t 0.0988 -s 2 -d 3 -p cbr -e 1000 -c 0 -i 57 -a 0 -x {2.1 3.0 11 ------- null}
r -t 0.1008 -s 1 -d 2 -p cbr -e 1000 -c 0 -i 56 -a 0 -x {1.1 2.0 11 ------- null}
+ -t 0.104 -s 0 -d 1 -p cbr -e 1000 -c 2 -i 65 -a 2 -x {0.0 1.0 13 ------- null}
- -t 0.104 -s 0 -d 1 -p cbr -e 1000 -c 2 -i 65 -a 2 -x {0.0 1.0 13 ------- null}
h -t 0.104 -s 0 -d 1 -p cbr -e 1000 -c 2 -i 65 -a 2 -x {0.0 1.0 -1 ------- null}
+ -t 0.104 -s 1 -d 2 -p cbr -e 1000 -c 0 -i 66 -a 0 -x {1.1 2.0 13 ------- null}
- -t 0.104 -s 1 -d 2 -p cbr -e 1000 -c 0 -i 66 -a 0 -x {1.1 2.0 13 ------- null}
h -t 0.104 -s 1 -d 2 -p cbr -e 1000 -c 0 -i 66 -a 0 -x {1.1 2.0 -1 ------- null}
+ -t 0.104 -s 2 -d 3 -p cbr -e 1000 -c 0 -i 67 -a 0 -x {2.1 3.0 13 ------- null}
- -t 0.104 -s 2 -d 3 -p cbr -e 1000 -c 0 -i 67 -a 0 -x {2.1 3.0 13 ------- null}
h -t 0.104 -s 2 -d 3 -p cbr -e 1000 -c 0 -i 67 -a 0 -x {2.1 3.0 -1 ------- null}
+ -t 0.104 -s 3 -d 4 -p cbr -e 1000 -c 0 -i 68 -a 0 -x {3.1 4.0 13 ------- null}
- -t 0.104 -s 3 -d 4 -p cbr -e 1000 -c 0 -i 68 -a 0 -x {3.1 4.0 13 ------- null}
h -t 0.104 -s 3 -d 4 -p cbr -e 1000 -c 0 -i 68 -a 0 -x {3.1 4.0 -1 ------- null}
+ -t 0.104 -s 4 -d 0 -p cbr -e 1000 -c 0 -i 69 -a 0 -x {4.1 0.1 13 ------- null}
- -t 0.104 -s 4 -d 0 -p cbr -e 1000 -c 0 -i 69 -a 0 -x {4.1 0.1 13 ------- null}
h -t 0.104 -s 4 -d 0 -p cbr -e 1000 -c 0 -i 69 -a 0 -x {4.1 0.1 -1 ------- null}
r -t 0.1048 -s 0 -d 1 -p cbr -e 1000 -c 2 -i 40 -a 2 -x {0.0 1.0 8 ------- null}
r -t 0.1048 -s 3 -d 4 -p cbr -e 1000 -c 0 -i 43 -a 0 -x {3.1 4.0 8 ------- null}
r -t 0.1048 -s 4 -d 0 -p cbr -e 1000 -c 0 -i 44 -a 0 -x {4.1 0.1 8 ------- null}
r -t 0.1068 -s 2 -d 3 -p cbr -e 1000 -c 0 -i 62 -a 0 -x {2.1 3.0 12 ------- null}
r -t 0.1088 -s 1 -d 2 -p cbr -e 1000 -c 0 -i 61 -a 0 -x {1.1 2.0 12 ------- null}
+ -t 0.112 -s 0 -d 1 -p cbr -e 1000 -c 2 -i 70 -a 2 -x {0.0 1.0 14 ------- null}
- -t 0.112 -s 0 -d 1 -p cbr -e 1000 -c 2 -i 70 -a 2 -x {0.0 1.0 14 ------- null}
h -t 0.112 -s 0 -d 1 -p cbr -e 1000 -c 2 -i 70 -a 2 -x {0.0 1.0 -1 ------- null}
+ -t 0.112 -s 1 -d 2 -p cbr -e 1000 -c 0 -i 71 -a 0 -x {1.1 2.0 14 ------- null}
- -t 0.112 -s 1 -d 2 -p cbr -e 1000 -c 0 -i 71 -a 0 -x {1.1 2.0 14 ------- null}
h -t 0.112 -s 1 -d 2 -p cbr -e 1000 -c 0 -i 71 -a 0 -x {1.1 2.0 -1 ------- null}
+ -t 0.112 -s 2 -d 3 -p cbr -e 1000 -c 0 -i 72 -a 0 -x {2.1 3.0 14 ------- null}
- -t 0.112 -s 2 -d 3 -p cbr -e 1000 -c 0 -i 72 -a 0 -x {2.1 3.0 14 ------- null}
h -t 0.112 -s 2 -d 3 -p cbr -e 1000 -c 0 -i 72 -a 0 -x {2.1 3.0 -1 ------- null}
+ -t 0.112 -s 3 -d 4 -p cbr -e 1000 -c 0 -i 73 -a 0 -x {3.1 4.0 14 ------- null}
- -t 0.112 -s 3 -d 4 -p cbr -e 1000 -c 0 -i 73 -a 0 -x {3.1 4.0 14 ------- null}
h -t 0.112 -s 3 -d 4 -p cbr -e 1000 -c 0 -i 73 -a 0 -x {3.1 4.0 -1 ------- null}
+ -t 0.112 -s 4 -d 0 -p cbr -e 1000 -c 0 -i 74 -a 0 -x {4.1 0.1 14 ------- null}
- -t 0.112 -s 4 -d 0 -p cbr -e 1000 -c 0 -i 74 -a 0 -x {4.1 0.1 14 ------- null}
h -t 0.112 -s 4 -d 0 -p cbr -e 1000 -c 0 -i 74 -a 0 -x {4.1 0.1 -1 ------- null}
r -t 0.1128 -s 0 -d 1 -p cbr -e 1000 -c 2 -i 45 -a 2 -x {0.0 1.0 9 ------- null}
r -t 0.1128 -s 3 -d 4 -p cbr -e 1000 -c 0 -i 48 -a 0 -x {3.1 4.0 9 ------- null}
r -t 0.1128 -s 4 -d 0 -p cbr -e 1000 -c 0 -i 49 -a 0 -x {4.1 0.1 9 ------- null}
r -t 0.1148 -s 2 -d 3 -p cbr -e 1000 -c 0 -i 67 -a 0 -x {2.1 3.0 13 ------- null}
r -t 0.1168 -s 1 -d 2 -p cbr -e 1000 -c 0 -i 66 -a 0 -x {1.1 2.0 13 ------- null}
+ -t 0.12 -s 0 -d 1 -p cbr -e 1000 -c 2 -i 75 -a 2 -x {0.0 1.0 15 ------- null}
- -t 0.12 -s 0 -d 1 -p cbr -e 1000 -c 2 -i 75 -a 2 -x {0.0 1.0 15 ------- null}
h -t 0.12 -s 0 -d 1 -p cbr -e 1000 -c 2 -i 75 -a 2 -x {0.0 1.0 -1 ------- null}
+ -t 0.12 -s 1 -d 2 -p cbr -e 1000 -c 0 -i 76 -a 0 -x {1.1 2.0 15 ------- null}
- -t 0.12 -s 1 -d 2 -p cbr -e 1000 -c 0 -i 76 -a 0 -x {1.1 2.0 15 ------- null}
h -t 0.12 -s 1 -d 2 -p cbr -e 1000 -c 0 -i 76 -a 0 -x {1.1 2.0 -1 ------- null}
+ -t 0.12 -s 2 -d 3 -p cbr -e 1000 -c 0 -i 77 -a 0 -x {2.1 3.0 15 ------- null}
- -t 0.12 -s 2 -d 3 -p cbr -e 1000 -c 0 -i 77 -a 0 -x {2.1 3.0 15 ------- null}
h -t 0.12 -s 2 -d 3 -p cbr -e 1000 -c 0 -i 77 -a 0 -x {2.1 3.0 -1 ------- null}
+ -t 0.12 -s 3 -d 4 -p cbr -e 1000 -c 0 -i 78 -a 0 -x {3.1 4.0 15 ------- null}
- -t 0.12 -s 3 -d 4 -p cbr -e 1000 -c 0 -i 78 -a 0 -x {3.1 4.0 15 ------- null}
h -t 0.12 -s 3 -d 4 -p cbr -e 1000 -c 0 -i 78 -a 0 -x {3.1 4.0 -1 ------- null}
+ -t 0.12 -s 4 -d 0 -p cbr -e 1000 -c 0 -i 79 -a 0 -x {4.1 0.1 15 ------- null}
- -t 0.12 -s 4 -d 0 -p cbr -e 1000 -c 0 -i 79 -a 0 -x {4.1 0.1 15 ------- null}
h -t 0.12 -s 4 -d 0 -p cbr -e 1000 -c 0 -i 79 -a 0 -x {4.1 0.1 -1 ------- null}
r -t 0.1208 -s 0 -d 1 -p cbr -e 1000 -c 2 -i 50 -a 2 -x {0.0 1.0 10 ------- null}
r -t 0.1208 -s 3 -d 4 -p cbr -e 1000 -c 0 -i 53 -a 0 -x {3.1 4.0 10 ------- null}
r -t 0.1208 -s 4 -d 0 -p cbr -e 1000 -c 0 -i 54 -a 0 -x {4.1 0.1 10 ------- null}
r -t 0.1228 -s 2 -d 3 -p cbr -e 1000 -c 0 -i 72 -a 0 -x {2.1 3.0 14 ------- null}
r -t 0.1248 -s 1 -d 2 -p cbr -e 1000 -c 0 -i 71 -a 0 -x {1.1 2.0 14 ------- null}
+ -t 0.128 -s 0 -d 1 -p cbr -e 1000 -c 2 -i 80 -a 2 -x {0.0 1.0 16 ------- null}
- -t 0.128 -s 0 -d 1 -p cbr -e 1000 -c 2 -i 80 -a 2 -x {0.0 1.0 16 ------- null}
h -t 0.128 -s 0 -d 1 -p cbr -e 1000 -c 2 -i 80 -a 2 -x {0.0 1.0 -1 ------- null}
+ -t 0.128 -s 1 -d 2 -p cbr -e 1000 -c 0 -i 81 -a 0 -x {1.1 2.0 16 ------- null}
- -t 0.128 -s 1 -d 2 -p cbr -e 1000 -c 0 -i 81 -a 0 -x {1.1 2.0 16 ------- null}
h -t 0.128 -s 1 -d 2 -p cbr -e 1000 -c 0 -i 81 -a 0 -x {1.1 2.0 -1 ------- null}
+ -t 0.128 -s 2 -d 3 -p cbr -e 1000 -c 0 -i 82 -a 0 -x {2.1 3.0 16 ------- null}
- -t 0.128 -s 2 -d 3 -p cbr -e 1000 -c 0 -i 82 -a 0 -x {2.1 3.0 16 ------- null}
h -t 0.128 -s 2 -d 3 -p cbr -e 1000 -c 0 -i 82 -a 0 -x {2.1 3.0 -1 ------- null}
+ -t 0.128 -s 3 -d 4 -p cbr -e 1000 -c 0 -i 83 -a 0 -x {3.1 4.0 16 ------- null}
- -t 0.128 -s 3 -d 4 -p cbr -e 1000 -c 0 -i 83 -a 0 -x {3.1 4.0 16 ------- null}
h -t 0.128 -s 3 -d 4 -p cbr -e 1000 -c 0 -i 83 -a 0 -x {3.1 4.0 -1 ------- null}
+ -t 0.128 -s 4 -d 0 -p cbr -e 1000 -c 0 -i 84 -a 0 -x {4.1 0.1 16 ------- null}
- -t 0.128 -s 4 -d 0 -p cbr -e 1000 -c 0 -i 84 -a 0 -x {4.1 0.1 16 ------- null}
h -t 0.128 -s 4 -d 0 -p cbr -e 1000 -c 0 -i 84 -a 0 -x {4.1 0.1 -1 ------- null}
r -t 0.1288 -s 0 -d 1 -p cbr -e 1000 -c 2 -i 55 -a 2 -x {0.0 1.0 11 ------- null}
r -t 0.1288 -s 3 -d 4 -p cbr -e 1000 -c 0 -i 58 -a 0 -x {3.1 4.0 11 ------- null}
r -t 0.1288 -s 4 -d 0 -p cbr -e 1000 -c 0 -i 59 -a 0 -x {4.1 0.1 11 ------- null}
r -t 0.1308 -s 2 -d 3 -p cbr -e 1000 -c 0 -i 77 -a 0 -x {2.1 3.0 15 ------- null}
r -t 0.1328 -s 1 -d 2 -p cbr -e 1000 -c 0 -i 76 -a 0 -x {1.1 2.0 15 ------- null}
+ -t 0.136 -s 0 -d 1 -p cbr -e 1000 -c 2 -i 85 -a 2 -x {0.0 1.0 17 ------- null}
- -t 0.136 -s 0 -d 1 -p cbr -e 1000 -c 2 -i 85 -a 2 -x {0.0 1.0 17 ------- null}
h -t 0.136 -s 0 -d 1 -p cbr -e 1000 -c 2 -i 85 -a 2 -x {0.0 1.0 -1 ------- null}
+ -t 0.136 -s 1 -d 2 -p cbr -e 1000 -c 0 -i 86 -a 0 -x {1.1 2.0 17 ------- null}
- -t 0.136 -s 1 -d 2 -p cbr -e 1000 -c 0 -i 86 -a 0 -x {1.1 2.0 17 ------- null}
h -t 0.136 -s 1 -d 2 -p cbr -e 1000 -c 0 -i 86 -a 0 -x {1.1 2.0 -1 ------- null}
+ -t 0.136 -s 2 -d 3 -p cbr -e 1000 -c 0 -i 87 -a 0 -x {2.1 3.0 17 ------- null}
- -t 0.136 -s 2 -d 3 -p cbr -e 1000 -c 0 -i 87 -a 0 -x {2.1 3.0 17 ------- null}
h -t 0.136 -s 2 -d 3 -p cbr -e 1000 -c 0 -i 87 -a 0 -x {2.1 3.0 -1 ------- null}
+ -t 0.136 -s 3 -d 4 -p cbr -e 1000 -c 0 -i 88 -a 0 -x {3.1 4.0 17 ------- null}
- -t 0.136 -s 3 -d 4 -p cbr -e 1000 -c 0 -i 88 -a 0 -x {3.1 4.0 17 ------- null}
h -t 0.136 -s 3 -d 4 -p cbr -e 1000 -c 0 -i 88 -a 0 -x {3.1 4.0 -1 ------- null}
+ -t 0.136 -s 4 -d 0 -p cbr -e 1000 -c 0 -i 89 -a 0 -x {4.1 0.1 17 ------- null}
- -t 0.136 -s 4 -d 0 -p cbr -e 1000 -c 0 -i 89 -a 0 -x {4.1 0.1 17 ------- null}
h -t 0.136 -s 4 -d 0 -p cbr -e 1000 -c 0 -i 89 -a 0 -x {4.1 0.1 -1 ------- null}
r -t 0.1368 -s 0 -d 1 -p cbr -e 1000 -c 2 -i 60 -a 2 -x {0.0 1.0 12 ------- null}
r -t 0.1368 -s 3 -d 4 -p cbr -e 1000 -c 0 -i 63 -a 0 -x {3.1 4.0 12 ------- null}
r -t 0.1368 -s 4 -d 0 -p cbr -e 1000 -c 0 -i 64 -a 0 -x {4.1 0.1 12 ------- null}
r -t 0.1388 -s 2 -d 3 -p cbr -e 1000 -c 0 -i 82 -a 0 -x {2.1 3.0 16 ------- null}
r -t 0.1408 -s 1 -d 2 -p cbr -e 1000 -c 0 -i 81 -a 0 -x {1.1 2.0 16 ------- null}
+ -t 0.144 -s 0 -d 1 -p cbr -e 1000 -c 2 -i 90 -a 2 -x {0.0 1.0 18 ------- null}
- -t 0.144 -s 0 -d 1 -p cbr -e 1000 -c 2 -i 90 -a 2 -x {0.0 1.0 18 ------- null}
h -t 0.144 -s 0 -d 1 -p cbr -e 1000 -c 2 -i 90 -a 2 -x {0.0 1.0 -1 ------- null}
+ -t 0.144 -s 1 -d 2 -p cbr -e 1000 -c 0 -i 91 -a 0 -x {1.1 2.0 18 ------- null}
- -t 0.144 -s 1 -d 2 -p cbr -e 1000 -c 0 -i 91 -a 0 -x {1.1 2.0 18 ------- null}
h -t 0.144 -s 1 -d 2 -p cbr -e 1000 -c 0 -i 91 -a 0 -x {1.1 2.0 -1 ------- null}
+ -t 0.144 -s 2 -d 3 -p cbr -e 1000 -c 0 -i 92 -a 0 -x {2.1 3.0 18 ------- null}
- -t 0.144 -s 2 -d 3 -p cbr -e 1000 -c 0 -i 92 -a 0 -x {2.1 3.0 18 ------- null}
h -t 0.144 -s 2 -d 3 -p cbr -e 1000 -c 0 -i 92 -a 0 -x {2.1 3.0 -1 ------- null}
+ -t 0.144 -s 3 -d 4 -p cbr -e 1000 -c 0 -i 93 -a 0 -x {3.1 4.0 18 ------- null}
- -t 0.144 -s 3 -d 4 -p cbr -e 1000 -c 0 -i 93 -a 0 -x {3.1 4.0 18 ------- null}
h -t 0.144 -s 3 -d 4 -p cbr -e 1000 -c 0 -i 93 -a 0 -x {3.1 4.0 -1 ------- null}
+ -t 0.144 -s 4 -d 0 -p cbr -e 1000 -c 0 -i 94 -a 0 -x {4.1 0.1 18 ------- null}
- -t 0.144 -s 4 -d 0 -p cbr -e 1000 -c 0 -i 94 -a 0 -x {4.1 0.1 18 ------- null}
h -t 0.144 -s 4 -d 0 -p cbr -e 1000 -c 0 -i 94 -a 0 -x {4.1 0.1 -1 ------- null}
r -t 0.1448 -s 0 -d 1 -p cbr -e 1000 -c 2 -i 65 -a 2 -x {0.0 1.0 13 ------- null}
r -t 0.1448 -s 3 -d 4 -p cbr -e 1000 -c 0 -i 68 -a 0 -x {3.1 4.0 13 ------- null}
r -t 0.1448 -s 4 -d 0 -p cbr -e 1000 -c 0 -i 69 -a 0 -x {4.1 0.1 13 ------- null}
r -t 0.1468 -s 2 -d 3 -p cbr -e 1000 -c 0 -i 87 -a 0 -x {2.1 3.0 17 ------- null}
r -t 0.1488 -s 1 -d 2 -p cbr -e 1000 -c 0 -i 86 -a 0 -x {1.1 2.0 17 ------- null}
+ -t 0.152 -s 0 -d 1 -p cbr -e 1000 -c 2 -i 95 -a 2 -x {0.0 1.0 19 ------- null}