+ 0 1 0 cbr 1000 ------- 2 1.0 4.0 0 0
- 0 1 0 cbr 1000 ------- 2 1.0 4.0 0 0
+ 0 2 0 cbr 1000 ------- 0 2.0 4.1 0 1
- 0 2 0 cbr 1000 ------- 0 2.0 4.1 0 1
+ 0 3 0 cbr 1000 ------- 0 3.0 4.2 0 2
- 0 3 0 cbr 1000 ------- 0 3.0 4.2 0 2
+ 0.008 1 0 cbr 1000 ------- 2 1.0 4.0 1 3
- 0.008 1 0 cbr 1000 ------- 2 1.0 4.0 1 3
+ 0.008 2 0 cbr 1000 ------- 0 2.0 4.1 1 4
- 0.008 2 0 cbr 1000 ------- 0 2.0 4.1 1 4
+ 0.008 3 0 cbr 1000 ------- 0 3.0 4.2 1 5
- 0.008 3 0 cbr 1000 ------- 0 3.0 4.2 1 5
+ 0.016 1 0 cbr 1000 ------- 2 1.0 4.0 2 6
- 0.016 1 0 cbr 1000 ------- 2 1.0 4.0 2 6
+ 0.016 2 0 cbr 1000 ------- 0 2.0 4.1 2 7
- 0.016 2 0 cbr 1000 ------- 0 2.0 4.1 2 7
+ 0.016 3 0 cbr 1000 ------- 0 3.0 4.2 2 8
- 0.016 3 0 cbr 1000 ------- 0 3.0 4.2 2 8
r 0.0208 1 0 cbr 1000 ------- 2 1.0 4.0 0 0
+ 0.0208 0 4 cbr 1000 ------- 2 1.0 4.0 0 0
- 0.0208 0 4 cbr 1000 ------- 2 1.0 4.0 0 0
r 0.0208 2 0 cbr 1000 ------- 0 2.0 4.1 0 1
+ 0.0208 0 4 cbr 1000 ------- 0 2.0 4.1 0 1
r 0.0208 3 0 cbr 1000 ------- 0 3.0 4.2 0 2
+ 0.0208 0 4 cbr 1000 ------- 0 3.0 4.2 0 2
- 0.02088 0 4 cbr 1000 ------- 0 2.0 4.1 0 1
- 0.02096 0 4 cbr 1000 ------- 0 3.0 4.2 0 2
+ 0.024 1 0 cbr 1000 ------- 2 1.0 4.0 3 9
- 0.024 1 0 cbr 1000 ------- 2 1.0 4.0 3 9
+ 0.024 2 0 cbr 1000 ------- 0 2.0 4.1 3 10
- 0.024 2 0 cbr 1000 ------- 0 2.0 4.1 3 10
+ 0.024 3 0 cbr 1000 ------- 0 3.0 4.2 3 11
- 0.024 3 0 cbr 1000 ------- 0 3.0 4.2 3 11
r 0.0288 1 0 cbr 1000 ------- 2 1.0 4.0 1 3
+ 0.0288 0 4 cbr 1000 ------- 2 1.0 4.0 1 3
- 0.0288 0 4 cbr 1000 ------- 2 1.0 4.0 1 3
r 0.0288 2 0 cbr 1000 ------- 0 2.0 4.1 1 4
+ 0.0288 0 4 cbr 1000 ------- 0 2.0 4.1 1 4
r 0.0288 3 0 cbr 1000 ------- 0 3.0 4.2 1 5
+ 0.0288 0 4 cbr 1000 ------- 0 3.0 4.2 1 5
- 0.02888 0 4 cbr 1000 ------- 0 2.0 4.1 1 4
- 0.02896 0 4 cbr 1000 ------- 0 3.0 4.2 1 5
+ 0.032 1 0 cbr 1000 ------- 2 1.0 4.0 4 12
- 0.032 1 0 cbr 1000 ------- 2 1.0 4.0 4 12
+ 0.032 2 0 cbr 1000 ------- 0 2.0 4.1 4 13
- 0.032 2 0 cbr 1000 ------- 0 2.0 4.1 4 13
+ 0.032 3 0 cbr 1000 ------- 0 3.0 4.2 4 14
- 0.032 3 0 cbr 1000 ------- 0 3.0 4.2 4 14
r 0.0368 1 0 cbr 1000 ------- 2 1.0 4.0 2 6
+ 0.0368 0 4 cbr 1000 ------- 2 1.0 4.0 2 6
- 0.0368 0 4 cbr 1000 ------- 2 1.0 4.0 2 6
r 0.0368 2 0 cbr 1000 ------- 0 2.0 4.1 2 7
+ 0.0368 0 4 cbr 1000 ------- 0 2.0 4.1 2 7
r 0.0368 3 0 cbr 1000 ------- 0 3.0 4.2 2 8
+ 0.0368 0 4 cbr 1000 ------- 0 3.0 4.2 2 8
- 0.03688 0 4 cbr 1000 ------- 0 2.0 4.1 2 7
- 0.03696 0 4 cbr 1000 ------- 0 3.0 4.2 2 8
+ 0.04 1 0 cbr 1000 ------- 2 1.0 4.0 5 15
- 0.04 1 0 cbr 1000 ------- 2 1.0 4.0 5 15
+ 0.04 2 0 cbr 1000 ------- 0 2.0 4.1 5 16
- 0.04 2 0 cbr 1000 ------- 0 2.0 4.1 5 16
+ 0.04 3 0 cbr 1000 ------- 0 3.0 4.2 5 17
- 0.04 3 0 cbr 1000 ------- 0 3.0 4.2 5 17
r 0.04088 0 4 cbr 1000 ------- 2 1.0 4.0 0 0
r 0.04096 0 4 cbr 1000 ------- 0 2.0 4.1 0 1
r 0.04104 0 4 cbr 1000 ------- 0 3.0 4.2 0 2
r 0.0448 1 0 cbr 1000 ------- 2 1.0 4.0 3 9
+ 0.0448 0 4 cbr 1000 ------- 2 1.0 4.0 3 9
- 0.0448 0 4 cbr 1000 ------- 2 1.0 4.0 3 9
r 0.0448 2 0 cbr 1000 ------- 0 2.0 4.1 3 10
+ 0.0448 0 4 cbr 1000 ------- 0 2.0 4.1 3 10
r 0.0448 3 0 cbr 1000 ------- 0 3.0 4.2 3 11
+ 0.0448 0 4 cbr 1000 ------- 0 3.0 4.2 3 11
- 0.04488 0 4 cbr 1000 ------- 0 2.0 4.1 3 10
- 0.04496 0 4 cbr 1000 ------- 0 3.0 4.2 3 11
+ 0.048 1 0 cbr 1000 ------- 2 1.0 4.0 6 18
- 0.048 1 0 cbr 1000 ------- 2 1.0 4.0 6 18
+ 0.048 2 0 cbr 1000 ------- 0 2.0 4.1 6 19
- 0.048 2 0 cbr 1000 ------- 0 2.0 4.1 6 19
+ 0.048 3 0 cbr 1000 ------- 0 3.0 4.2 6 20
- 0.048 3 0 cbr 1000 ------- 0 3.0 4.2 6 20
r 0.04888 0 4 cbr 1000 ------- 2 1.0 4.0 1 3
r 0.04896 0 4 cbr 1000 ------- 0 2.0 4.1 1 4
r 0.04904 0 4 cbr 1000 ------- 0 3.0 4.2 1 5
r 0.0528 1 0 cbr 1000 ------- 2 1.0 4.0 4 12
+ 0.0528 0 4 cbr 1000 ------- 2 1.0 4.0 4 12
- 0.0528 0 4 cbr 1000 ------- 2 1.0 4.0 4 12
r 0.0528 2 0 cbr 1000 ------- 0 2.0 4.1 4 13
+ 0.0528 0 4 cbr 1000 ------- 0 2.0 4.1 4 13
r 0.0528 3 0 cbr 1000 ------- 0 3.0 4.2 4 14
+ 0.0528 0 4 cbr 1000 ------- 0 3.0 4.2 4 14
- 0.05288 0 4 cbr 1000 ------- 0 2.0 4.1 4 13
- 0.05296 0 4 cbr 1000 ------- 0 3.0 4.2 4 14
+ 0.056 1 0 cbr 1000 ------- 2 1.0 4.0 7 21
- 0.056 1 0 cbr 1000 ------- 2 1.0 4.0 7 21
+ 0.056 2 0 cbr 1000 ------- 0 2.0 4.1 7 22
- 0.056 2 0 cbr 1000 ------- 0 2.0 4.1 7 22
+ 0.056 3 0 cbr 1000 ------- 0 3.0 4.2 7 23
- 0.056 3 0 cbr 1000 ------- 0 3.0 4.2 7 23
r 0.05688 0 4 cbr 1000 ------- 2 1.0 4.0 2 6
r 0.05696 0 4 cbr 1000 ------- 0 2.0 4.1 2 7
r 0.05704 0 4 cbr 1000 ------- 0 3.0 4.2 2 8
r 0.0608 1 0 cbr 1000 ------- 2 1.0 4.0 5 15
+ 0.0608 0 4 cbr 1000 ------- 2 1.0 4.0 5 15
- 0.0608 0 4 cbr 1000 ------- 2 1.0 4.0 5 15
r 0.0608 2 0 cbr 1000 ------- 0 2.0 4.1 5 16
+ 0.0608 0 4 cbr 1000 ------- 0 2.0 4.1 5 16
r 0.0608 3 0 cbr 1000 ------- 0 3.0 4.2 5 17
+ 0.0608 0 4 cbr 1000 ------- 0 3.0 4.2 5 17
- 0.06088 0 4 cbr 1000 ------- 0 2.0 4.1 5 16
- 0.06096 0 4 cbr 1000 ------- 0 3.0 4.2 5 17
+ 0.064 1 0 cbr 1000 ------- 2 1.0 4.0 8 24
- 0.064 1 0 cbr 1000 ------- 2 1.0 4.0 8 24
+ 0.064 2 0 cbr 1000 ------- 0 2.0 4.1 8 25
- 0.064 2 0 cbr 1000 ------- 0 2.0 4.1 8 25
+ 0.064 3 0 cbr 1000 ------- 0 3.0 4.2 8 26
- 0.064 3 0 cbr 1000 ------- 0 3.0 4.2 8 26
r 0.06488 0 4 cbr 1000 ------- 2 1.0 4.0 3 9
r 0.06496 0 4 cbr 1000 ------- 0 2.0 4.1 3 10
r 0.06504 0 4 cbr 1000 ------- 0 3.0 4.2 3 11
r 0.0688 1 0 cbr 1000 ------- 2 1.0 4.0 6 18
+ 0.0688 0 4 cbr 1000 ------- 2 1.0 4.0 6 18
- 0.0688 0 4 cbr 1000 ------- 2 1.0 4.0 6 18
r 0.0688 2 0 cbr 1000 ------- 0 2.0 4.1 6 19
+ 0.0688 0 4 cbr 1000 ------- 0 2.0 4.1 6 19
r 0.0688 3 0 cbr 1000 ------- 0 3.0 4.2 6 20
+ 0.0688 0 4 cbr 1000 ------- 0 3.0 4.2 6 20
- 0.06888 0 4 cbr 1000 ------- 0 2.0 4.1 6 19
- 0.06896 0 4 cbr 1000 ------- 0 3.0 4.2 6 20
+ 0.072 1 0 cbr 1000 ------- 2 1.0 4.0 9 27
- 0.072 1 0 cbr 1000 ------- 2 1.0 4.0 9 27
+ 0.072 2 0 cbr 1000 ------- 0 2.0 4.1 9 28
- 0.072 2 0 cbr 1000 ------- 0 2.0 4.1 9 28
+ 0.072 3 0 cbr 1000 ------- 0 3.0 4.2 9 29
- 0.072 3 0 cbr 1000 ------- 0 3.0 4.2 9 29
r 0.07288 0 4 cbr 1000 ------- 2 1.0 4.0 4 12
r 0.07296 0 4 cbr 1000 ------- 0 2.0 4.1 4 13
r 0.07304 0 4 cbr 1000 ------- 0 3.0 4.2 4 14
r 0.0768 1 0 cbr 1000 ------- 2 1.0 4.0 7 21
+ 0.0768 0 4 cbr 1000 ------- 2 1.0 4.0 7 21
- 0.0768 0 4 cbr 1000 ------- 2 1.0 4.0 7 21
r 0.0768 2 0 cbr 1000 ------- 0 2.0 4.1 7 22
+ 0.0768 0 4 cbr 1000 ------- 0 2.0 4.1 7 22
r 0.0768 3 0 cbr 1000 ------- 0 3.0 4.2 7 23
+ 0.0768 0 4 cbr 1000 ------- 0 3.0 4.2 7 23
- 0.07688 0 4 cbr 1000 ------- 0 2.0 4.1 7 22
- 0.07696 0 4 cbr 1000 ------- 0 3.0 4.2 7 23
+ 0.08 1 0 cbr 1000 ------- 2 1.0 4.0 10 30
- 0.08 1 0 cbr 1000 ------- 2 1.0 4.0 10 30
+ 0.08 2 0 cbr 1000 ------- 0 2.0 4.1 10 31
- 0.08 2 0 cbr 1000 ------- 0 2.0 4.1 10 31
+ 0.08 3 0 cbr 1000 ------- 0 3.0 4.2 10 32
- 0.08 3 0 cbr 1000 ------- 0 3.0 4.2 10 32
r 0.08088 0 4 cbr 1000 ------- 2 1.0 4.0 5 15
r 0.08096 0 4 cbr 1000 ------- 0 2.0 4.1 5 16
r 0.08104 0 4 cbr 1000 ------- 0 3.0 4.2 5 17
r 0.0848 1 0 cbr 1000 ------- 2 1.0 4.0 8 24
+ 0.0848 0 4 cbr 1000 ------- 2 1.0 4.0 8 24
- 0.0848 0 4 cbr 1000 ------- 2 1.0 4.0 8 24
r 0.0848 2 0 cbr 1000 ------- 0 2.0 4.1 8 25
+ 0.0848 0 4 cbr 1000 ------- 0 2.0 4.1 8 25
r 0.0848 3 0 cbr 1000 ------- 0 3.0 4.2 8 26
+ 0.0848 0 4 cbr 1000 ------- 0 3.0 4.2 8 26
- 0.08488 0 4 cbr 1000 ------- 0 2.0 4.1 8 25
- 0.08496 0 4 cbr 1000 ------- 0 3.0 4.2 8 26
+ 0.088 1 0 cbr 1000 ------- 2 1.0 4.0 11 33
- 0.088 1 0 cbr 1000 ------- 2 1.0 4.0 11 33
+ 0.088 2 0 cbr 1000 ------- 0 2.0 4.1 11 34
- 0.088 2 0 cbr 1000 ------- 0 2.0 4.1 11 34
+ 0.088 3 0 cbr 1000 ------- 0 3.0 4.2 11 35
- 0.088 3 0 cbr 1000 ------- 0 3.0 4.2 11 35
r 0.08888 0 4 cbr 1000 ------- 2 1.0 4.0 6 18
r 0.08896 0 4 cbr 1000 ------- 0 2.0 4.1 6 19
r 0.08904 0 4 cbr 1000 ------- 0 3.0 4.2 6 20
r 0.0928 1 0 cbr 1000 ------- 2 1.0 4.0 9 27
+ 0.0928 0 4 cbr 1000 ------- 2 1.0 4.0 9 27
- 0.0928 0 4 cbr 1000 ------- 2 1.0 4.0 9 27
r 0.0928 2 0 cbr 1000 ------- 0 2.0 4.1 9 28
+ 0.0928 0 4 cbr 1000 ------- 0 2.0 4.1 9 28
r 0.0928 3 0 cbr 1000 ------- 0 3.0 4.2 9 29
+ 0.0928 0 4 cbr 1000 ------- 0 3.0 4.2 9 29
- 0.09288 0 4 cbr 1000 ------- 0 2.0 4.1 9 28
- 0.09296 0 4 cbr 1000 ------- 0 3.0 4.2 9 29
+ 0.096 1 0 cbr 1000 ------- 2 1.0 4.0 12 36
- 0.096 1 0 cbr 1000 ------- 2 1.0 4.0 12 36
+ 0.096 2 0 cbr 1000 ------- 0 2.0 4.1 12 37
- 0.096 2 0 cbr 1000 ------- 0 2.0 4.1 12 37
+ 0.096 3 0 cbr 1000 ------- 0 3.0 4.2 12 38
- 0.096 3 0 cbr 1000 ------- 0 3.0 4.2 12 38
r 0.09688 0 4 cbr 1000 ------- 2 1.0 4.0 7 21
r 0.09696 0 4 cbr 1000 ------- 0 2.0 4.1 7 22
r 0.09704 0 4 cbr 1000 ------- 0 3.0 4.2 7 23
r 0.1008 1 0 cbr 1000 ------- 2 1.0 4.0 10 30
+ 0.1008 0 4 cbr 1000 ------- 2 1.0 4.0 10 30
- 0.1008 0 4 cbr 1000 ------- 2 1.0 4.0 10 30
r 0.1008 2 0 cbr 1000 ------- 0 2.0 4.1 10 31
+ 0.1008 0 4 cbr 1000 ------- 0 2.0 4.1 10 31
r 0.1008 3 0 cbr 1000 ------- 0 3.0 4.2 10 32
+ 0.1008 0 4 cbr 1000 ------- 0 3.0 4.2 10 32
- 0.10088 0 4 cbr 1000 ------- 0 2.0 4.1 10 31
- 0.10096 0 4 cbr 1000 ------- 0 3.0 4.2 10 32
+ 0.104 1 0 cbr 1000 ------- 2 1.0 4.0 13 39
- 0.104 1 0 cbr 1000 ------- 2 1.0 4.0 13 39
+ 0.104 2 0 cbr 1000 ------- 0 2.0 4.1 13 40
- 0.104 2 0 cbr 1000 ------- 0 2.0 4.1 13 40
+ 0.104 3 0 cbr 1000 ------- 0 3.0 4.2 13 41
- 0.104 3 0 cbr 1000 ------- 0 3.0 4.2 13 41
r 0.10488 0 4 cbr 1000 ------- 2 1.0 4.0 8 24
r 0.10496 0 4 cbr 1000 ------- 0 2.0 4.1 8 25
r 0.10504 0 4 cbr 1000 ------- 0 3.0 4.2 8 26
r 0.1088 1 0 cbr 1000 ------- 2 1.0 4.0 11 33
+ 0.1088 0 4 cbr 1000 ------- 2 1.0 4.0 11 33
- 0.1088 0 4 cbr 1000 ------- 2 1.0 4.0 11 33
r 0.1088 2 0 cbr 1000 ------- 0 2.0 4.1 11 34
+ 0.1088 0 4 cbr 1000 ------- 0 2.0 4.1 11 34
r 0.1088 3 0 cbr 1000 ------- 0 3.0 4.2 11 35
+ 0.1088 0 4 cbr 1000 ------- 0 3.0 4.2 11 35
- 0.10888 0 4 cbr 1000 ------- 0 2.0 4.1 11 34
- 0.10896 0 4 cbr 1000 ------- 0 3.0 4.2 11 35
+ 0.112 1 0 cbr 1000 ------- 2 1.0 4.0 14 42
- 0.112 1 0 cbr 1000 ------- 2 1.0 4.0 14 42
+ 0.112 2 0 cbr 1000 ------- 0 2.0 4.1 14 43
- 0.112 2 0 cbr 1000 ------- 0 2.0 4.1 14 43
+ 0.112 3 0 cbr 1000 ------- 0 3.0 4.2 14 44
- 0.112 3 0 cbr 1000 ------- 0 3.0 4.2 14 44
r 0.11288 0 4 cbr 1000 ------- 2 1.0 4.0 9 27
r 0.11296 0 4 cbr 1000 ------- 0 2.0 4.1 9 28
r 0.11304 0 4 cbr 1000 ------- 0 3.0 4.2 9 29
r 0.1168 1 0 cbr 1000 ------- 2 1.0 4.0 12 36
+ 0.1168 0 4 cbr 1000 ------- 2 1.0 4.0 12 36
- 0.1168 0 4 cbr 1000 ------- 2 1.0 4.0 12 36
r 0.1168 2 0 cbr 1000 ------- 0 2.0 4.1 12 37
+ 0.1168 0 4 cbr 1000 ------- 0 2.0 4.1 12 37
r 0.1168 3 0 cbr 1000 ------- 0 3.0 4.2 12 38
+ 0.1168 0 4 cbr 1000 ------- 0 3.0 4.2 12 38
- 0.11688 0 4 cbr 1000 ------- 0 2.0 4.1 12 37
- 0.11696 0 4 cbr 1000 ------- 0 3.0 4.2 12 38
+ 0.12 1 0 cbr 1000 ------- 2 1.0 4.0 15 45
- 0.12 1 0 cbr 1000 ------- 2 1.0 4.0 15 45
+ 0.12 2 0 cbr 1000 ------- 0 2.0 4.1 15 46
- 0.12 2 0 cbr 1000 ------- 0 2.0 4.1 15 46
+ 0.12 3 0 cbr 1000 ------- 0 3.0 4.2 15 47
- 0.12 3 0 cbr 1000 ------- 0 3.0 4.2 15 47
r 0.12088 0 4 cbr 1000 ------- 2 1.0 4.0 10 30
r 0.12096 0 4 cbr 1000 ------- 0 2.0 4.1 10 31
r 0.12104 0 4 cbr 1000 ------- 0 3.0 4.2 10 32
r 0.1248 1 0 cbr 1000 ------- 2 1.0 4.0 13 39
+ 0.1248 0 4 cbr 1000 ------- 2 1.0 4.0 13 39
- 0.1248 0 4 cbr 1000 ------- 2 1.0 4.0 13 39
r 0.1248 2 0 cbr 1000 ------- 0 2.0 4.1 13 40
+ 0.1248 0 4 cbr 1000 ------- 0 2.0 4.1 13 40
r 0.1248 3 0 cbr 1000 ------- 0 3.0 4.2 13 41
+ 0.1248 0 4 cbr 1000 ------- 0 3.0 4.2 13 41
- 0.12488 0 4 cbr 1000 ------- 0 2.0 4.1 13 40
- 0.12496 0 4 cbr 1000 ------- 0 3.0 4.2 13 41
+ 0.128 1 0 cbr 1000 ------- 2 1.0 4.0 16 48
- 0.128 1 0 cbr 1000 ------- 2 1.0 4.0 16 48
+ 0.128 2 0 cbr 1000 ------- 0 2.0 4.1 16 49
- 0.128 2 0 cbr 1000 ------- 0 2.0 4.1 16 49
+ 0.128 3 0 cbr 1000 ------- 0 3.0 4.2 16 50
- 0.128 3 0 cbr 1000 ------- 0 3.0 4.2 16 50
r 0.12888 0 4 cbr 1000 ------- 2 1.0 4.0 11 33
r 0.12896 0 4 cbr 1000 ------- 0 2.0 4.1 11 34
r 0.12904 0 4 cbr 1000 ------- 0 3.0 4.2 11 35
r 0.1328 1 0 cbr 1000 ------- 2 1.0 4.0 14 42
+ 0.1328 0 4 cbr 1000 ------- 2 1.0 4.0 14 42
- 0.1328 0 4 cbr 1000 ------- 2 1.0 4.0 14 42
r 0.1328 2 0 cbr 1000 ------- 0 2.0 4.1 14 43
+ 0.1328 0 4 cbr 1000 ------- 0 2.0 4.1 14 43
r 0.1328 3 0 cbr 1000 ------- 0 3.0 4.2 14 44
+ 0.1328 0 4 cbr 1000 ------- 0 3.0 4.2 14 44
- 0.13288 0 4 cbr 1000 ------- 0 2.0 4.1 14 43
- 0.13296 0 4 cbr 1000 ------- 0 3.0 4.2 14 44
+ 0.136 1 0 cbr 1000 ------- 2 1.0 4.0 17 51
- 0.136 1 0 cbr 1000 ------- 2 1.0 4.0 17 51
+ 0.136 2 0 cbr 1000 ------- 0 2.0 4.1 17 52
- 0.136 2 0 cbr 1000 ------- 0 2.0 4.1 17 52
+ 0.136 3 0 cbr 1000 ------- 0 3.0 4.2 17 53
- 0.136 3 0 cbr 1000 ------- 0 3.0 4.2 17 53
r 0.13688 0 4 cbr 1000 ------- 2 1.0 4.0 12 36
r 0.13696 0 4 cbr 1000 ------- 0 2.0 4.1 12 37
r 0.13704 0 4 cbr 1000 ------- 0 3.0 4.2 12 38
r 0.1408 1 0 cbr 1000 ------- 2 1.0 4.0 15 45
+ 0.1408 0 4 cbr 1000 ------- 2 1.0 4.0 15 45
- 0.1408 0 4 cbr 1000 ------- 2 1.0 4.0 15 45
r 0.1408 2 0 cbr 1000 ------- 0 2.0 4.1 15 46
+ 0.1408 0 4 cbr 1000 ------- 0 2.0 4.1 15 46
r 0.1408 3 0 cbr 1000 ------- 0 3.0 4.2 15 47
+ 0.1408 0 4 cbr 1000 ------- 0 3.0 4.2 15 47
- 0.14088 0 4 cbr 1000 ------- 0 2.0 4.1 15 46
- 0.14096 0 4 cbr 1000 ------- 0 3.0 4.2 15 47
+ 0.144 1 0 cbr 1000 ------- 2 1.0 4.0 18 54
- 0.144 1 0 cbr 1000 ------- 2 1.0 4.0 18 54
+ 0.144 2 0 cbr 1000 ------- 0 2.0 4.1 18 55
- 0.144 2 0 cbr 1000 ------- 0 2.0 4.1 18 55
+ 0.144 3 0 cbr 1000 ------- 0 3.0 4.2 18 56
- 0.144 3 0 cbr 1000 ------- 0 3.0 4.2 18 56
r 0.14488 0 4 cbr 1000 ------- 2 1.0 4.0 13 39
r 0.14496 0 4 cbr 1000 ------- 0 2.0 4.1 13 40
r 0.14504 0 4 cbr 1000 ------- 0 3.0 4.2 13 41
r 0.1488 1 0 cbr 1000 ------- 2 1.0 4.0 16 48
+ 0.1488 0 4 cbr 1000 ------- 2 1.0 4.0 16 48
- 0.1488 0 4 cbr 1000 ------- 2 1.0 4.0 16 48
r 0.1488 2 0 cbr 1000 ------- 0 2.0 4.1 16 49
+ 0.1488 0 4 cbr 1000 ------- 0 2.0 4.1 16 49
r 0.1488 3 0 cbr 1000 ------- 0 3.0 4.2 16 50
+ 0.1488 0 4 cbr 1000 ------- 0 3.0 4.2 16 50
- 0.14888 0 4 cbr 1000 ------- 0 2.0 4.1 16 49
- 0.14896 0 4 cbr 1000 ------- 0 3.0 4.2 16 50
+ 0.152 1 0 cbr 1000 ------- 2 1.0 4.0 19 57
- 0.152 1 0 cbr 1000 ------- 2 1.0 4.0 19 57
+ 0.152 2 0 cbr 1000 ------- 0 2.0 4.1 19 58
- 0.152 2 0 cbr 1000 ------- 0 2.0 4.1 19 58
+ 0.152 3 0 cbr 1000 ------- 0 3.0 4.2 19 59
- 0.152 3 0 cbr 1000 ------- 0 3.0 4.2 19 59
r 0.15288 0 4 cbr 1000 ------- 2 1.0 4.0 14 42
r 0.15296 0 4 cbr 1000 ------- 0 2.0 4.1 14 43
r 0.15304 0 4 cbr 1000 ------- 0 3.0 4.2 14 44
r 0.1568 1 0 cbr 1000 ------- 2 1.0 4.0 17 51
+ 0.1568 0 4 cbr 1000 ------- 2 1.0 4.0 17 51
- 0.1568 0 4 cbr 1000 ------- 2 1.0 4.0 17 51
r 0.1568 2 0 cbr 1000 ------- 0 2.0 4.1 17 52
+ 0.1568 0 4 cbr 1000 ------- 0 2.0 4.1 17 52
r 0.1568 3 0 cbr 1000 ------- 0 3.0 4.2 17 53
+ 0.1568 0 4 cbr 1000 ------- 0 3.0 4.2 17 53
- 0.15688 0 4 cbr 1000 ------- 0 2.0 4.1 17 52
- 0.15696 0 4 cbr 1000 ------- 0 3.0 4.2 17 53
+ 0.16 1 0 cbr 1000 ------- 2 1.0 4.0 20 60
- 0.16 1 0 cbr 1000 ------- 2 1.0 4.0 20 60
+ 0.16 2 0 cbr 1000 ------- 0 2.0 4.1 20 61
- 0.16 2 0 cbr 1000 ------- 0 2.0 4.1 20 61
+ 0.16 3 0 cbr 1000 ------- 0 3.0 4.2 20 62
- 0.16 3 0 cbr 1000 ------- 0 3.0 4.2 20 62
r 0.16088 0 4 cbr 1000 ------- 2 1.0 4.0 15 45
r 0.16096 0 4 cbr 1000 ------- 0 2.0 4.1 15 46
r 0.16104 0 4 cbr 1000 ------- 0 3.0 4.2 15 47
r 0.1648 1 0 cbr 1000 ------- 2 1.0 4.0 18 54
+ 0.1648 0 4 cbr 1000 ------- 2 1.0 4.0 18 54
- 0.1648 0 4 cbr 1000 ------- 2 1.0 4.0 18 54
r 0.1648 2 0 cbr 1000 ------- 0 2.0 4.1 18 55
+ 0.1648 0 4 cbr 1000 ------- 0 2.0 4.1 18 55
r 0.1648 3 0 cbr 1000 ------- 0 3.0 4.2 18 56
+ 0.1648 0 4 cbr 1000 ------- 0 3.0 4.2 18 56
- 0.16488 0 4 cbr 1000 ------- 0 2.0 4.1 18 55
- 0.16496 0 4 cbr 1000 ------- 0 3.0 4.2 18 56
+ 0.168 1 0 cbr 1000 ------- 2 1.0 4.0 21 63
- 0.168 1 0 cbr 1000 ------- 2 1.0 4.0 21 63
+ 0.168 2 0 cbr 1000 ------- 0 2.0 4.1 21 64
- 0.168 2 0 cbr 1000 ------- 0 2.0 4.1 21 64
+ 0.168 3 0 cbr 1000 ------- 0 3.0 4.2 21 65
- 0.168 3 0 cbr 1000 ------- 0 3.0 4.2 21 65
r 0.16888 0 4 cbr 1000 ------- 2 1.0 4.0 16 48
r 0.16896 0 4 cbr 1000 ------- 0 2.0 4.1 16 49
r 0.16904 0 4 cbr 1000 ------- 0 3.0 4.2 16 50
r 0.1728 1 0 cbr 1000 ------- 2 1.0 4.0 19 57
+ 0.1728 0 4 cbr 1000 ------- 2 1.0 4.0 19 57
- 0.1728 0 4 cbr 1000 ------- 2 1.0 4.0 19 57
r 0.1728 2 0 cbr 1000 ------- 0 2.0 4.1 19 58
+ 0.1728 0 4 cbr 1000 ------- 0 2.0 4.1 19 58
r 0.1728 3 0 cbr 1000 ------- 0 3.0 4.2 19 59
+ 0.1728 0 4 cbr 1000 ------- 0 3.0 4.2 19 59
- 0.17288 0 4 cbr 1000 ------- 0 2.0 4.1 19 58
- 0.17296 0 4 cbr 1000 ------- 0 3.0 4.2 19 59
+ 0.176 1 0 cbr 1000 ------- 2 1.0 4.0 22 66
- 0.176 1 0 cbr 1000 ------- 2 1.0 4.0 22 66
+ 0.176 2 0 cbr 1000 ------- 0 2.0 4.1 22 67
- 0.176 2 0 cbr 1000 ------- 0 2.0 4.1 22 67
+ 0.176 3 0 cbr 1000 ------- 0 3.0 4.2 22 68
- 0.176 3 0 cbr 1000 ------- 0 3.0 4.2 22 68
r 0.17688 0 4 cbr 1000 ------- 2 1.0 4.0 17 51
r 0.17696 0 4 cbr 1000 ------- 0 2.0 4.1 17 52
r 0.17704 0 4 cbr 1000 ------- 0 3.0 4.2 17 53
r 0.1808 1 0 cbr 1000 ------- 2 1.0 4.0 20 60
+ 0.1808 0 4 cbr 1000 ------- 2 1.0 4.0 20 60
- 0.1808 0 4 cbr 1000 ------- 2 1.0 4.0 20 60
r 0.1808 2 0 cbr 1000 ------- 0 2.0 4.1 20 61
+ 0.1808 0 4 cbr 1000 ------- 0 2.0 4.1 20 61
r 0.1808 3 0 cbr 1000 ------- 0 3.0 4.2 20 62
+ 0.1808 0 4 cbr 1000 ------- 0 3.0 4.2 20 62
- 0.18088 0 4 cbr 1000 ------- 0 2.0 4.1 20 61
- 0.18096 0 4 cbr 1000 ------- 0 3.0 4.2 20 62
+ 0.184 1 0 cbr 1000 ------- 2 1.0 4.0 23 69
- 0.184 1 0 cbr 1000 ------- 2 1.0 4.0 23 69
+ 0.184 2 0 cbr 1000 ------- 0 2.0 4.1 23 70
- 0.184 2 0 cbr 1000 ------- 0 2.0 4.1 23 70
+ 0.184 3 0 cbr 1000 ------- 0 3.0 4.2 23 71
- 0.184 3 0 cbr 1000 ------- 0 3.0 4.2 23 71
r 0.18488 0 4 cbr 1000 ------- 2 1.0 4.0 18 54
r 0.18496 0 4 cbr 1000 ------- 0 2.0 4.1 18 55
r 0.18504 0 4 cbr 1000 ------- 0 3.0 4.2 18 56
r 0.1888 1 0 cbr 1000 ------- 2 1.0 4.0 21 63
+ 0.1888 0 4 cbr 1000 ------- 2 1.0 4.0 21 63
- 0.1888 0 4 cbr 1000 ------- 2 1.0 4.0 21 63
r 0.1888 2 0 cbr 1000 ------- 0 2.0 4.1 21 64
+ 0.1888 0 4 cbr 1000 ------- 0 2.0 4.1 21 64
r 0.1888 3 0 cbr 1000 ------- 0 3.0 4.2 21 65
+ 0.1888 0 4 cbr 1000 ------- 0 3.0 4.2 21 65
- 0.18888 0 4 cbr 1000 ------- 0 2.0 4.1 21 64
- 0.18896 0 4 cbr 1000 ------- 0 3.0 4.2 21 65
+ 0.192 1 0 cbr 1000 ------- 2 1.0 4.0 24 72
- 0.192 1 0 cbr 1000 ------- 2 1.0 4.0 24 72
+ 0.192 2 0 cbr 1000 ------- 0 2.0 4.1 24 73
- 0.192 2 0 cbr 1000 ------- 0 2.0 4.1 24 73
+ 0.192 3 0 cbr 1000 ------- 0 3.0 4.2 24 74
- 0.192 3 0 cbr 1000 ------- 0 3.0 4.2 24 74
r 0.19288 0 4 cbr 1000 ------- 2 1.0 4.0 19 57
r 0.19296 0 4 cbr 1000 ------- 0 2.0 4.1 19 58
r 0.19304 0 4 cbr 1000 ------- 0 3.0 4.2 19 59
r 0.1968 1 0 cbr 1000 ------- 2 1.0 4.0 22 66
+ 0.1968 0 4 cbr 1000 ------- 2 1.0 4.0 22 66
- 0.1968 0 4 cbr 1000 ------- 2 1.0 4.0 22 66
r 0.1968 2 0 cbr 1000 ------- 0 2.0 4.1 22 67
+ 0.1968 0 4 cbr 1000 ------- 0 2.0 4.1 22 67
r 0.1968 3 0 cbr 1000 ------- 0 3.0 4.2 22 68
+ 0.1968 0 4 cbr 1000 ------- 0 3.0 4.2 22 68
- 0.19688 0 4 cbr 1000 ------- 0 2.0 4.1 22 67
- 0.19696 0 4 cbr 1000 ------- 0 3.0 4.2 22 68
+ 0.2 1 0 cbr 1000 ------- 2 1.0 4.0 25 75
- 0.2 1 0 cbr 1000 ------- 2 1.0 4.0 25 75
+ 0.2 2 0 cbr 1000 ------- 0 2.0 4.1 25 76
- 0.2 2 0 cbr 1000 ------- 0 2.0 4.1 25 76
+ 0.2 3 0 cbr 1000 ------- 0 3.0 4.2 25 77
- 0.2 3 0 cbr 1000 ------- 0 3.0 4.2 25 77
r 0.20088 0 4 cbr 1000 ------- 2 1.0 4.0 20 60
r 0.20096 0 4 cbr 1000 ------- 0 2.0 4.1 20 61
r 0.20104 0 4 cbr 1000 ------- 0 3.0 4.2 20 62
r 0.2048 1 0 cbr 1000 ------- 2 1.0 4.0 23 69
+ 0.2048 0 4 cbr 1000 ------- 2 1.0 4.0 23 69
- 0.2048 0 4 cbr 1000 ------- 2 1.0 4.0 23 69
r 0.2048 2 0 cbr 1000 ------- 0 2.0 4.1 23 70
+ 0.2048 0 4 cbr 1000 ------- 0 2.0 4.1 23 70
r 0.2048 3 0 cbr 1000 ------- 0 3.0 4.2 23 71
+ 0.2048 0 4 cbr 1000 ------- 0 3.0 4.2 23 71
- 0.20488 0 4 cbr 1000 ------- 0 2.0 4.1 23 70
- 0.20496 0 4 cbr 1000 ------- 0 3.0 4.2 23 71
+ 0.208 1 0 cbr 1000 ------- 2 1.0 4.0 26 78
- 0.208 1 0 cbr 1000 ------- 2 1.0 4.0 26 78
+ 0.208 2 0 cbr 1000 ------- 0 2.0 4.1 26 79
- 0.208 2 0 cbr 1000 ------- 0 2.0 4.1 26 79
+ 0.208 3 0 cbr 1000 ------- 0 3.0 4.2 26 80
- 0.208 3 0 cbr 1000 ------- 0 3.0 4.2 26 80
r 0.20888 0 4 cbr 1000 ------- 2 1.0 4.0 21 63
r 0.20896 0 4 cbr 1000 ------- 0 2.0 4.1 21 64
r 0.20904 0 4 cbr 1000 ------- 0 3.0 4.2 21 65
r 0.2128 1 0 cbr 1000 ------- 2 1.0 4.0 24 72
+ 0.2128 0 4 cbr 1000 ------- 2 1.0 4.0 24 72
- 0.2128 0 4 cbr 1000 ------- 2 1.0 4.0 24 72
r 0.2128 2 0 cbr 1000 ------- 0 2.0 4.1 24 73
+ 0.2128 0 4 cbr 1000 ------- 0 2.0 4.1 24 73
r 0.2128 3 0 cbr 1000 ------- 0 3.0 4.2 24 74
+ 0.2128 0 4 cbr 1000 ------- 0 3.0 4.2 24 74
- 0.21288 0 4 cbr 1000 ------- 0 2.0 4.1 24 73
- 0.21296 0 4 cbr 1000 ------- 0 3.0 4.2 24 74
+ 0.216 1 0 cbr 1000 ------- 2 1.0 4.0 27 81
- 0.216 1 0 cbr 1000 ------- 2 1.0 4.0 27 81
+ 0.216 2 0 cbr 1000 ------- 0 2.0 4.1 27 82
- 0.216 2 0 cbr 1000 ------- 0 2.0 4.1 27 82
+ 0.216 3 0 cbr 1000 ------- 0 3.0 4.2 27 83
- 0.216 3 0 cbr 1000 ------- 0 3.0 4.2 27 83
r 0.21688 0 4 cbr 1000 ------- 2 1.0 4.0 22 66
r 0.21696 0 4 cbr 1000 ------- 0 2.0 4.1 22 67
r 0.21704 0 4 cbr 1000 ------- 0 3.0 4.2 22 68
r 0.2208 1 0 cbr 1000 ------- 2 1.0 4.0 25 75
+ 0.2208 0 4 cbr 1000 ------- 2 1.0 4.0 25 75
- 0.2208 0 4 cbr 1000 ------- 2 1.0 4.0 25 75
r 0.2208 2 0 cbr 1000 ------- 0 2.0 4.1 25 76
+ 0.2208 0 4 cbr 1000 ------- 0 2.0 4.1 25 76
r 0.2208 3 0 cbr 1000 ------- 0 3.0 4.2 25 77
+ 0.2208 0 4 cbr 1000 ------- 0 3.0 4.2 25 77
- 0.22088 0 4 cbr 1000 ------- 0 2.0 4.1 25 76
- 0.22096 0 4 cbr 1000 ------- 0 3.0 4.2 25 77
+ 0.224 1 0 cbr 1000 ------- 2 1.0 4.0 28 84
- 0.224 1 0 cbr 1000 ------- 2 1.0 4.0 28 84
+ 0.224 2 0 cbr 1000 ------- 0 2.0 4.1 28 85
- 0.224 2 0 cbr 1000 ------- 0 2.0 4.1 28 85
+ 0.224 3 0 cbr 1000 ------- 0 3.0 4.2 28 86
- 0.224 3 0 cbr 1000 ------- 0 3.0 4.2 28 86
r 0.22488 0 4 cbr 1000 ------- 2 1.0 4.0 23 69
r 0.22496 0 4 cbr 1000 ------- 0 2.0 4.1 23 70
r 0.22504 0 4 cbr 1000 ------- 0 3.0 4.2 23 71
r 0.2288 1 0 cbr 1000 ------- 2 1.0 4.0 26 78
+ 0.2288 0 4 cbr 1000 ------- 2 1.0 4.0 26 78
- 0.2288 0 4 cbr 1000 ------- 2 1.0 4.0 26 78
r 0.2288 2 0 cbr 1000 ------- 0 2.0 4.1 26 79
+ 0.2288 0 4 cbr 1000 ------- 0 2.0 4.1 26 79
r 0.2288 3 0 cbr 1000 ------- 0 3.0 4.2 26 80
+ 0.2288 0 4 cbr 1000 ------- 0 3.0 4.2 26 80
- 0.22888 0 4 cbr 1000 ------- 0 2.0 4.1 26 79
- 0.22896 0 4 cbr 1000 ------- 0 3.0 4.2 26 80
+ 0.232 1 0 cbr 1000 ------- 2 1.0 4.0 29 87
- 0.232 1 0 cbr 1000 ------- 2 1.0 4.0 29 87
+ 0.232 2 0 cbr 1000 ------- 0 2.0 4.1 29 88
- 0.232 2 0 cbr 1000 ------- 0 2.0 4.1 29 88
+ 0.232 3 0 cbr 1000 ------- 0 3.0 4.2 29 89
- 0.232 3 0 cbr 1000 ------- 0 3.0 4.2 29 89
r 0.23288 0 4 cbr 1000 ------- 2 1.0 4.0 24 72
r 0.23296 0 4 cbr 1000 ------- 0 2.0 4.1 24 73
r 0.23304 0 4 cbr 1000 ------- 0 3.0 4.2 24 74
r 0.2368 1 0 cbr 1000 ------- 2 1.0 4.0 27 81
+ 0.2368 0 4 cbr 1000 ------- 2 1.0 4.0 27 81
- 0.2368 0 4 cbr 1000 ------- 2 1.0 4.0 27 81
r 0.2368 2 0 cbr 1000 ------- 0 2.0 4.1 27 82
+ 0.2368 0 4 cbr 1000 ------- 0 2.0 4.1 27 82
r 0.2368 3 0 cbr 1000 ------- 0 3.0 4.2 27 83
+ 0.2368 0 4 cbr 1000 ------- 0 3.0 4.2 27 83
- 0.23688 0 4 cbr 1000 ------- 0 2.0 4.1 27 82
- 0.23696 0 4 cbr 1000 ------- 0 3.0 4.2 27 83
+ 0.24 1 0 cbr 1000 ------- 2 1.0 4.0 30 90
- 0.24 1 0 cbr 1000 ------- 2 1.0 4.0 30 90
+ 0.24 2 0 cbr 1000 ------- 0 2.0 4.1 30 91
- 0.24 2 0 cbr 1000 ------- 0 2.0 4.1 30 91
+ 0.24 3 0 cbr 1000 ------- 0 3.0 4.2 30 92
- 0.24 3 0 cbr 1000 ------- 0 3.0 4.2 30 92
r 0.24088 0 4 cbr 1000 ------- 2 1.0 4.0 25 75
r 0.24096 0 4 cbr 1000 ------- 0 2.0 4.1 25 76
r 0.24104 0 4 cbr 1000 ------- 0 3.0 4.2 25 77
r 0.2448 1 0 cbr 1000 ------- 2 1.0 4.0 28 84
+ 0.2448 0 4 cbr 1000 ------- 2 1.0 4.0 28 84
- 0.2448 0 4 cbr 1000 ------- 2 1.0 4.0 28 84
r 0.2448 2 0 cbr 1000 ------- 0 2.0 4.1 28 85
+ 0.2448 0 4 cbr 1000 ------- 0 2.0 4.1 28 85
r 0.2448 3 0 cbr 1000 ------- 0 3.0 4.2 28 86
+ 0.2448 0 4 cbr 1000 ------- 0 3.0 4.2 28 86
- 0.24488 0 4 cbr 1000 ------- 0 2.0 4.1 28 85
- 0.24496 0 4 cbr 1000 ------- 0 3.0 4.2 28 86
+ 0.248 1 0 cbr 1000 ------- 2 1.0 4.0 31 93
- 0.248 1 0 cbr 1000 ------- 2 1.0 4.0 31 93
+ 0.248 2 0 cbr 1000 ------- 0 2.0 4.1 31 94
- 0.248 2 0 cbr 1000 ------- 0 2.0 4.1 31 94
+ 0.248 3 0 cbr 1000 ------- 0 3.0 4.2 31 95
- 0.248 3 0 cbr 1000 ------- 0 3.0 4.2 31 95
r 0.24888 0 4 cbr 1000 ------- 2 1.0 4.0 26 78
r 0.24896 0 4 cbr 1000 ------- 0 2.0 4.1 26 79
r 0.24904 0 4 cbr 1000 ------- 0 3.0 4.2 26 80
r 0.2528 1 0 cbr 1000 ------- 2 1.0 4.0 29 87
+ 0.2528 0 4 cbr 1000 ------- 2 1.0 4.0 29 87
- 0.2528 0 4 cbr 1000 ------- 2 1.0 4.0 29 87
r 0.2528 2 0 cbr 1000 ------- 0 2.0 4.1 29 88
+ 0.2528 0 4 cbr 1000 ------- 0 2.0 4.1 29 88
r 0.2528 3 0 cbr 1000 ------- 0 3.0 4.2 29 89
+ 0.2528 0 4 cbr 1000 ------- 0 3.0 4.2 29 89
- 0.25288 0 4 cbr 1000 ------- 0 2.0 4.1 29 88
- 0.25296 0 4 cbr 1000 ------- 0 3.0 4.2 29 89
+ 0.256 1 0 cbr 1000 ------- 2 1.0 4.0 32 96
- 0.256 1 0 cbr 1000 ------- 2 1.0 4.0 32 96
+ 0.256 2 0 cbr 1000 ------- 0 2.0 4.1 32 97
- 0.256 2 0 cbr 1000 ------- 0 2.0 4.1 32 97
+ 0.256 3 0 cbr 1000 ------- 0 3.0 4.2 32 98
- 0.256 3 0 cbr 1000 ------- 0 3.0 4.2 32 98
r 0.25688 0 4 cbr 1000 ------- 2 1.0 4.0 27 81
r 0.25696 0 4 cbr 1000 ------- 0 2.0 4.1 27 82
r 0.25704 0 4 cbr 1000 ------- 0 3.0 4.2 27 83
r 0.2608 1 0 cbr 1000 ------- 2 1.0 4.0 30 90
+ 0.2608 0 4 cbr 1000 ------- 2 1.0 4.0 30 90
- 0.2608 0 4 cbr 1000 ------- 2 1.0 4.0 30 90
r 0.2608 2 0 cbr 1000 ------- 0 2.0 4.1 30 91
+ 0.2608 0 4 cbr 1000 ------- 0 2.0 4.1 30 91
r 0.2608 3 0 cbr 1000 ------- 0 3.0 4.2 30 92
+ 0.2608 0 4 cbr 1000 ------- 0 3.0 4.2 30 92
- 0.26088 0 4 cbr 1000 ------- 0 2.0 4.1 30 91
- 0.26096 0 4 cbr 1000 ------- 0 3.0 4.2 30 92
+ 0.264 1 0 cbr 1000 ------- 2 1.0 4.0 33 99
- 0.264 1 0 cbr 1000 ------- 2 1.0 4.0 33 99
+ 0.264 2 0 cbr 1000 ------- 0 2.0 4.1 33 100
- 0.264 2 0 cbr 1000 ------- 0 2.0 4.1 33 100
+ 0.264 3 0 cbr 1000 ------- 0 3.0 4.2 33 101
- 0.264 3 0 cbr 1000 ------- 0 3.0 4.2 33 101
r 0.26488 0 4 cbr 1000 ------- 2 1.0 4.0 28 84
r 0.26496 0 4 cbr 1000 ------- 0 2.0 4.1 28 85
r 0.26504 0 4 cbr 1000 ------- 0 3.0 4.2 28 86
r 0.2688 1 0 cbr 1000 ------- 2 1.0 4.0 31 93
+ 0.2688 0 4 cbr 1000 ------- 2 1.0 4.0 31 93
- 0.2688 0 4 cbr 1000 ------- 2 1.0 4.0 31 93
r 0.2688 2 0 cbr 1000 ------- 0 2.0 4.1 31 94
+ 0.2688 0 4 cbr 1000 ------- 0 2.0 4.1 31 94
r 0.2688 3 0 cbr 1000 ------- 0 3.0 4.2 31 95
+ 0.2688 0 4 cbr 1000 ------- 0 3.0 4.2 31 95
- 0.26888 0 4 cbr 1000 ------- 0 2.0 4.1 31 94
- 0.26896 0 4 cbr 1000 ------- 0 3.0 4.2 31 95
+ 0.272 1 0 cbr 1000 ------- 2 1.0 4.0 34 102
- 0.272 1 0 cbr 1000 ------- 2 1.0 4.0 34 102
+ 0.272 2 0 cbr 1000 ------- 0 2.0 4.1 34 103
- 0.272 2 0 cbr 1000 ------- 0 2.0 4.1 34 103
+ 0.272 3 0 cbr 1000 ------- 0 3.0 4.2 34 104
- 0.272 3 0 cbr 1000 ------- 0 3.0 4.2 34 104
r 0.27288 0 4 cbr 1000 ------- 2 1.0 4.0 29 87
r 0.27296 0 4 cbr 1000 ------- 0 2.0 4.1 29 88
r 0.27304 0 4 cbr 1000 ------- 0 3.0 4.2 29 89
r 0.2768 1 0 cbr 1000 ------- 2 1.0 4.0 32 96
+ 0.2768 0 4 cbr 1000 ------- 2 1.0 4.0 32 96
- 0.2768 0 4 cbr 1000 ------- 2 1.0 4.0 32 96
r 0.2768 2 0 cbr 1000 ------- 0 2.0 4.1 32 97
+ 0.2768 0 4 cbr 1000 ------- 0 2.0 4.1 32 97
r 0.2768 3 0 cbr 1000 ------- 0 3.0 4.2 32 98
+ 0.2768 0 4 cbr 1000 ------- 0 3.0 4.2 32 98
- 0.27688 0 4 cbr 1000 ------- 0 2.0 4.1 32 97
- 0.27696 0 4 cbr 1000 ------- 0 3.0 4.2 32 98
+ 0.28 1 0 cbr 1000 ------- 2 1.0 4.0 35 105
- 0.28 1 0 cbr 1000 ------- 2 1.0 4.0 35 105
+ 0.28 2 0 cbr 1000 ------- 0 2.0 4.1 35 106
- 0.28 2 0 cbr 1000 ------- 0 2.0 4.1 35 106
+ 0.28 3 0 cbr 1000 ------- 0 3.0 4.2 35 107
- 0.28 3 0 cbr 1000 ------- 0 3.0 4.2 35 107
r 0.28088 0 4 cbr 1000 ------- 2 1.0 4.0 30 90
r 0.28096 0 4 cbr 1000 ------- 0 2.0 4.1 30 91
r 0.28104 0 4 cbr 1000 ------- 0 3.0 4.2 30 92
r 0.2848 1 0 cbr 1000 ------- 2 1.0 4.0 33 99
+ 0.2848 0 4 cbr 1000 ------- 2 1.0 4.0 33 99
- 0.2848 0 4 cbr 1000 ------- 2 1.0 4.0 33 99
r 0.2848 2 0 cbr 1000 ------- 0 2.0 4.1 33 100
+ 0.2848 0 4 cbr 1000 ------- 0 2.0 4.1 33 100
r 0.2848 3 0 cbr 1000 ------- 0 3.0 4.2 33 101
+ 0.2848 0 4 cbr 1000 ------- 0 3.0 4.2 33 101
- 0.28488 0 4 cbr 1000 ------- 0 2.0 4.1 33 100
- 0.28496 0 4 cbr 1000 ------- 0 3.0 4.2 33 101
+ 0.288 1 0 cbr 1000 ------- 2 1.0 4.0 36 108
- 0.288 1 0 cbr 1000 ------- 2 1.0 4.0 36 108
+ 0.288 2 0 cbr 1000 ------- 0 2.0 4.1 36 109
- 0.288 2 0 cbr 1000 ------- 0 2.0 4.1 36 109
+ 0.288 3 0 cbr 1000 ------- 0 3.0 4.2 36 110
- 0.288 3 0 cbr 1000 ------- 0 3.0 4.2 36 110
r 0.28888 0 4 cbr 1000 ------- 2 1.0 4.0 31 93
r 0.28896 0 4 cbr 1000 ------- 0 2.0 4.1 31 94
r 0.28904 0 4 cbr 1000 ------- 0 3.0 4.2 31 95
r 0.2928 1 0 cbr 1000 ------- 2 1.0 4.0 34 102
+ 0.2928 0 4 cbr 1000 ------- 2 1.0 4.0 34 102
- 0.2928 0 4 cbr 1000 ------- 2 1.0 4.0 34 102
r 0.2928 2 0 cbr 1000 ------- 0 2.0 4.1 34 103
+ 0.2928 0 4 cbr 1000 ------- 0 2.0 4.1 34 103
r 0.2928 3 0 cbr 1000 ------- 0 3.0 4.2 34 104
+ 0.2928 0 4 cbr 1000 ------- 0 3.0 4.2 34 104
- 0.29288 0 4 cbr 1000 ------- 0 2.0 4.1 34 103
- 0.29296 0 4 cbr 1000 ------- 0 3.0 4.2 34 104
+ 0.296 1 0 cbr 1000 ------- 2 1.0 4.0 37 111
- 0.296 1 0 cbr 1000 ------- 2 1.0 4.0 37 111
+ 0.296 2 0 cbr 1000 ------- 0 2.0 4.1 37 112
- 0.296 2 0 cbr 1000 ------- 0 2.0 4.1 37 112
+ 0.296 3 0 cbr 1000 ------- 0 3.0 4.2 37 113
- 0.296 3 0 cbr 1000 ------- 0 3.0 4.2 37 113
r 0.29688 0 4 cbr 1000 ------- 2 1.0 4.0 32 96
r 0.29696 0 4 cbr 1000 ------- 0 2.0 4.1 32 97
r 0.29704 0 4 cbr 1000 ------- 0 3.0 4.2 32 98
r 0.3008 1 0 cbr 1000 ------- 2 1.0 4.0 35 105
+ 0.3008 0 4 cbr 1000 ------- 2 1.0 4.0 35 105
- 0.3008 0 4 cbr 1000 ------- 2 1.0 4.0 35 105
r 0.3008 2 0 cbr 1000 ------- 0 2.0 4.1 35 106
+ 0.3008 0 4 cbr 1000 ------- 0 2.0 4.1 35 106
r 0.3008 3 0 cbr 1000 ------- 0 3.0 4.2 35 107
+ 0.3008 0 4 cbr 1000 ------- 0 3.0 4.2 35 107
- 0.30088 0 4 cbr 1000 ------- 0 2.0 4.1 35 106
- 0.30096 0 4 cbr 1000 ------- 0 3.0 4.2 35 107
+ 0.304 1 0 cbr 1000 ------- 2 1.0 4.0 38 114
- 0.304 1 0 cbr 1000 ------- 2 1.0 4.0 38 114
+ 0.304 2 0 cbr 1000 ------- 0 2.0 4.1 38 115
- 0.304 2 0 cbr 1000 ------- 0 2.0 4.1 38 115
+ 0.304 3 0 cbr 1000 ------- 0 3.0 4.2 38 116
- 0.304 3 0 cbr 1000 ------- 0 3.0 4.2 38 116
r 0.30488 0 4 cbr 1000 ------- 2 1.0 4.0 33 99
r 0.30496 0 4 cbr 1000 ------- 0 2.0 4.1 33 100