V -t * -v 1.0a5 -a 0
A -t * -n 1 -p 0 -o 0x7fffffff -c 30 -a 1
A -t * -h 1 -m 1073741823 -s 0
c -t * -i 2 -n red
n -t * -a 4 -s 4 -S UP -v circle -c black -i black
n -t * -a 0 -s 0 -S UP -v circle -c black -i black
n -t * -a 1 -s 1 -S UP -v circle -c black -i black
n -t * -a 2 -s 2 -S UP -v circle -c black -i black
n -t * -a 3 -s 3 -S UP -v circle -c black -i black
l -t * -s 1 -d 0 -S UP -r 10000000 -D 0.02 -c black -o right-down
l -t * -s 2 -d 0 -S UP -r 10000000 -D 0.02 -c black -o left-down
l -t * -s 3 -d 0 -S UP -r 10000000 -D 0.02 -c black -o right-up
l -t * -s 4 -d 0 -S UP -r 100000000 -D 0.02 -c black -o left-up
+ -t 0 -s 1 -d 0 -p cbr -e 1000 -c 2 -i 0 -a 2 -x {1.0 4.0 0 ------- null}
- -t 0 -s 1 -d 0 -p cbr -e 1000 -c 2 -i 0 -a 2 -x {1.0 4.0 0 ------- null}
h -t 0 -s 1 -d 0 -p cbr -e 1000 -c 2 -i 0 -a 2 -x {1.0 4.0 -1 ------- null}
+ -t 0 -s 2 -d 0 -p cbr -e 1000 -c 0 -i 1 -a 0 -x {2.0 4.1 0 ------- null}
- -t 0 -s 2 -d 0 -p cbr -e 1000 -c 0 -i 1 -a 0 -x {2.0 4.1 0 ------- null}
h -t 0 -s 2 -d 0 -p cbr -e 1000 -c 0 -i 1 -a 0 -x {2.0 4.1 -1 ------- null}
+ -t 0 -s 3 -d 0 -p cbr -e 1000 -c 0 -i 2 -a 0 -x {3.0 4.2 0 ------- null}
- -t 0 -s 3 -d 0 -p cbr -e 1000 -c 0 -i 2 -a 0 -x {3.0 4.2 0 ------- null}
h -t 0 -s 3 -d 0 -p cbr -e 1000 -c 0 -i 2 -a 0 -x {3.0 4.2 -1 ------- null}
+ -t 0.008 -s 1 -d 0 -p cbr -e 1000 -c 2 -i 3 -a 2 -x {1.0 4.0 1 ------- null}
- -t 0.008 -s 1 -d 0 -p cbr -e 1000 -c 2 -i 3 -a 2 -x {1.0 4.0 1 ------- null}
h -t 0.008 -s 1 -d 0 -p cbr -e 1000 -c 2 -i 3 -a 2 -x {1.0 4.0 -1 ------- null}
+ -t 0.008 -s 2 -d 0 -p cbr -e 1000 -c 0 -i 4 -a 0 -x {2.0 4.1 1 ------- null}
- -t 0.008 -s 2 -d 0 -p cbr -e 1000 -c 0 -i 4 -a 0 -x {2.0 4.1 1 ------- null}
h -t 0.008 -s 2 -d 0 -p cbr -e 1000 -c 0 -i 4 -a 0 -x {2.0 4.1 -1 ------- null}
+ -t 0.008 -s 3 -d 0 -p cbr -e 1000 -c 0 -i 5 -a 0 -x {3.0 4.2 1 ------- null}
- -t 0.008 -s 3 -d 0 -p cbr -e 1000 -c 0 -i 5 -a 0 -x {3.0 4.2 1 ------- null}
h -t 0.008 -s 3 -d 0 -p cbr -e 1000 -c 0 -i 5 -a 0 -x {3.0 4.2 -1 ------- null}
+ -t 0.016 -s 1 -d 0 -p cbr -e 1000 -c 2 -i 6 -a 2 -x {1.0 4.0 2 ------- null}
- -t 0.016 -s 1 -d 0 -p cbr -e 1000 -c 2 -i 6 -a 2 -x {1.0 4.0 2 ------- null}
h -t 0.016 -s 1 -d 0 -p cbr -e 1000 -c 2 -i 6 -a 2 -x {1.0 4.0 -1 ------- null}
+ -t 0.016 -s 2 -d 0 -p cbr -e 1000 -c 0 -i 7 -a 0 -x {2.0 4.1 2 ------- null}
- -t 0.016 -s 2 -d 0 -p cbr -e 1000 -c 0 -i 7 -a 0 -x {2.0 4.1 2 ------- null}
h -t 0.016 -s 2 -d 0 -p cbr -e 1000 -c 0 -i 7 -a 0 -x {2.0 4.1 -1 ------- null}
+ -t 0.016 -s 3 -d 0 -p cbr -e 1000 -c 0 -i 8 -a 0 -x {3.0 4.2 2 ------- null}
- -t 0.016 -s 3 -d 0 -p cbr -e 1000 -c 0 -i 8 -a 0 -x {3.0 4.2 2 ------- null}
h -t 0.016 -s 3 -d 0 -p cbr -e 1000 -c 0 -i 8 -a 0 -x {3.0 4.2 -1 ------- null}
r -t 0.0208 -s 1 -d 0 -p cbr -e 1000 -c 2 -i 0 -a 2 -x {1.0 4.0 0 ------- null}
+ -t 0.0208 -s 0 -d 4 -p cbr -e 1000 -c 2 -i 0 -a 2 -x {1.0 4.0 0 ------- null}
- -t 0.0208 -s 0 -d 4 -p cbr -e 1000 -c 2 -i 0 -a 2 -x {1.0 4.0 0 ------- null}
h -t 0.0208 -s 0 -d 4 -p cbr -e 1000 -c 2 -i 0 -a 2 -x {1.0 4.0 -1 ------- null}
r -t 0.0208 -s 2 -d 0 -p cbr -e 1000 -c 0 -i 1 -a 0 -x {2.0 4.1 0 ------- null}
+ -t 0.0208 -s 0 -d 4 -p cbr -e 1000 -c 0 -i 1 -a 0 -x {2.0 4.1 0 ------- null}
r -t 0.0208 -s 3 -d 0 -p cbr -e 1000 -c 0 -i 2 -a 0 -x {3.0 4.2 0 ------- null}
+ -t 0.0208 -s 0 -d 4 -p cbr -e 1000 -c 0 -i 2 -a 0 -x {3.0 4.2 0 ------- null}
- -t 0.02088 -s 0 -d 4 -p cbr -e 1000 -c 0 -i 1 -a 0 -x {2.0 4.1 0 ------- null}
h -t 0.02088 -s 0 -d 4 -p cbr -e 1000 -c 0 -i 1 -a 0 -x {2.0 4.1 -1 ------- null}
- -t 0.02096 -s 0 -d 4 -p cbr -e 1000 -c 0 -i 2 -a 0 -x {3.0 4.2 0 ------- null}
h -t 0.02096 -s 0 -d 4 -p cbr -e 1000 -c 0 -i 2 -a 0 -x {3.0 4.2 -1 ------- null}
+ -t 0.024 -s 1 -d 0 -p cbr -e 1000 -c 2 -i 9 -a 2 -x {1.0 4.0 3 ------- null}
- -t 0.024 -s 1 -d 0 -p cbr -e 1000 -c 2 -i 9 -a 2 -x {1.0 4.0 3 ------- null}
h -t 0.024 -s 1 -d 0 -p cbr -e 1000 -c 2 -i 9 -a 2 -x {1.0 4.0 -1 ------- null}
+ -t 0.024 -s 2 -d 0 -p cbr -e 1000 -c 0 -i 10 -a 0 -x {2.0 4.1 3 ------- null}
- -t 0.024 -s 2 -d 0 -p cbr -e 1000 -c 0 -i 10 -a 0 -x {2.0 4.1 3 ------- null}
h -t 0.024 -s 2 -d 0 -p cbr -e 1000 -c 0 -i 10 -a 0 -x {2.0 4.1 -1 ------- null}
+ -t 0.024 -s 3 -d 0 -p cbr -e 1000 -c 0 -i 11 -a 0 -x {3.0 4.2 3 ------- null}
- -t 0.024 -s 3 -d 0 -p cbr -e 1000 -c 0 -i 11 -a 0 -x {3.0 4.2 3 ------- null}
h -t 0.024 -s 3 -d 0 -p cbr -e 1000 -c 0 -i 11 -a 0 -x {3.0 4.2 -1 ------- null}
r -t 0.0288 -s 1 -d 0 -p cbr -e 1000 -c 2 -i 3 -a 2 -x {1.0 4.0 1 ------- null}
+ -t 0.0288 -s 0 -d 4 -p cbr -e 1000 -c 2 -i 3 -a 2 -x {1.0 4.0 1 ------- null}
- -t 0.0288 -s 0 -d 4 -p cbr -e 1000 -c 2 -i 3 -a 2 -x {1.0 4.0 1 ------- null}
h -t 0.0288 -s 0 -d 4 -p cbr -e 1000 -c 2 -i 3 -a 2 -x {1.0 4.0 -1 ------- null}
r -t 0.0288 -s 2 -d 0 -p cbr -e 1000 -c 0 -i 4 -a 0 -x {2.0 4.1 1 ------- null}
+ -t 0.0288 -s 0 -d 4 -p cbr -e 1000 -c 0 -i 4 -a 0 -x {2.0 4.1 1 ------- null}
r -t 0.0288 -s 3 -d 0 -p cbr -e 1000 -c 0 -i 5 -a 0 -x {3.0 4.2 1 ------- null}
+ -t 0.0288 -s 0 -d 4 -p cbr -e 1000 -c 0 -i 5 -a 0 -x {3.0 4.2 1 ------- null}
- -t 0.02888 -s 0 -d 4 -p cbr -e 1000 -c 0 -i 4 -a 0 -x {2.0 4.1 1 ------- null}
h -t 0.02888 -s 0 -d 4 -p cbr -e 1000 -c 0 -i 4 -a 0 -x {2.0 4.1 -1 ------- null}
- -t 0.02896 -s 0 -d 4 -p cbr -e 1000 -c 0 -i 5 -a 0 -x {3.0 4.2 1 ------- null}
h -t 0.02896 -s 0 -d 4 -p cbr -e 1000 -c 0 -i 5 -a 0 -x {3.0 4.2 -1 ------- null}
+ -t 0.032 -s 1 -d 0 -p cbr -e 1000 -c 2 -i 12 -a 2 -x {1.0 4.0 4 ------- null}
- -t 0.032 -s 1 -d 0 -p cbr -e 1000 -c 2 -i 12 -a 2 -x {1.0 4.0 4 ------- null}
h -t 0.032 -s 1 -d 0 -p cbr -e 1000 -c 2 -i 12 -a 2 -x {1.0 4.0 -1 ------- null}
+ -t 0.032 -s 2 -d 0 -p cbr -e 1000 -c 0 -i 13 -a 0 -x {2.0 4.1 4 ------- null}
- -t 0.032 -s 2 -d 0 -p cbr -e 1000 -c 0 -i 13 -a 0 -x {2.0 4.1 4 ------- null}
h -t 0.032 -s 2 -d 0 -p cbr -e 1000 -c 0 -i 13 -a 0 -x {2.0 4.1 -1 ------- null}
+ -t 0.032 -s 3 -d 0 -p cbr -e 1000 -c 0 -i 14 -a 0 -x {3.0 4.2 4 ------- null}
- -t 0.032 -s 3 -d 0 -p cbr -e 1000 -c 0 -i 14 -a 0 -x {3.0 4.2 4 ------- null}
h -t 0.032 -s 3 -d 0 -p cbr -e 1000 -c 0 -i 14 -a 0 -x {3.0 4.2 -1 ------- null}
r -t 0.0368 -s 1 -d 0 -p cbr -e 1000 -c 2 -i 6 -a 2 -x {1.0 4.0 2 ------- null}
+ -t 0.0368 -s 0 -d 4 -p cbr -e 1000 -c 2 -i 6 -a 2 -x {1.0 4.0 2 ------- null}
- -t 0.0368 -s 0 -d 4 -p cbr -e 1000 -c 2 -i 6 -a 2 -x {1.0 4.0 2 ------- null}
h -t 0.0368 -s 0 -d 4 -p cbr -e 1000 -c 2 -i 6 -a 2 -x {1.0 4.0 -1 ------- null}
r -t 0.0368 -s 2 -d 0 -p cbr -e 1000 -c 0 -i 7 -a 0 -x {2.0 4.1 2 ------- null}
+ -t 0.0368 -s 0 -d 4 -p cbr -e 1000 -c 0 -i 7 -a 0 -x {2.0 4.1 2 ------- null}
r -t 0.0368 -s 3 -d 0 -p cbr -e 1000 -c 0 -i 8 -a 0 -x {3.0 4.2 2 ------- null}
+ -t 0.0368 -s 0 -d 4 -p cbr -e 1000 -c 0 -i 8 -a 0 -x {3.0 4.2 2 ------- null}
- -t 0.03688 -s 0 -d 4 -p cbr -e 1000 -c 0 -i 7 -a 0 -x {2.0 4.1 2 ------- null}
h -t 0.03688 -s 0 -d 4 -p cbr -e 1000 -c 0 -i 7 -a 0 -x {2.0 4.1 -1 ------- null}
- -t 0.03696 -s 0 -d 4 -p cbr -e 1000 -c 0 -i 8 -a 0 -x {3.0 4.2 2 ------- null}
h -t 0.03696 -s 0 -d 4 -p cbr -e 1000 -c 0 -i 8 -a 0 -x {3.0 4.2 -1 ------- null}
+ -t 0.04 -s 1 -d 0 -p cbr -e 1000 -c 2 -i 15 -a 2 -x {1.0 4.0 5 ------- null}
- -t 0.04 -s 1 -d 0 -p cbr -e 1000 -c 2 -i 15 -a 2 -x {1.0 4.0 5 ------- null}
h -t 0.04 -s 1 -d 0 -p cbr -e 1000 -c 2 -i 15 -a 2 -x {1.0 4.0 -1 ------- null}
+ -t 0.04 -s 2 -d 0 -p cbr -e 1000 -c 0 -i 16 -a 0 -x {2.0 4.1 5 ------- null}
- -t 0.04 -s 2 -d 0 -p cbr -e 1000 -c 0 -i 16 -a 0 -x {2.0 4.1 5 ------- null}
h -t 0.04 -s 2 -d 0 -p cbr -e 1000 -c 0 -i 16 -a 0 -x {2.0 4.1 -1 ------- null}
+ -t 0.04 -s 3 -d 0 -p cbr -e 1000 -c 0 -i 17 -a 0 -x {3.0 4.2 5 ------- null}
- -t 0.04 -s 3 -d 0 -p cbr -e 1000 -c 0 -i 17 -a 0 -x {3.0 4.2 5 ------- null}
h -t 0.04 -s 3 -d 0 -p cbr -e 1000 -c 0 -i 17 -a 0 -x {3.0 4.2 -1 ------- null}
r -t 0.04088 -s 0 -d 4 -p cbr -e 1000 -c 2 -i 0 -a 2 -x {1.0 4.0 0 ------- null}
r -t 0.04096 -s 0 -d 4 -p cbr -e 1000 -c 0 -i 1 -a 0 -x {2.0 4.1 0 ------- null}
r -t 0.04104 -s 0 -d 4 -p cbr -e 1000 -c 0 -i 2 -a 0 -x {3.0 4.2 0 ------- null}
r -t 0.0448 -s 1 -d 0 -p cbr -e 1000 -c 2 -i 9 -a 2 -x {1.0 4.0 3 ------- null}
+ -t 0.0448 -s 0 -d 4 -p cbr -e 1000 -c 2 -i 9 -a 2 -x {1.0 4.0 3 ------- null}
- -t 0.0448 -s 0 -d 4 -p cbr -e 1000 -c 2 -i 9 -a 2 -x {1.0 4.0 3 ------- null}
h -t 0.0448 -s 0 -d 4 -p cbr -e 1000 -c 2 -i 9 -a 2 -x {1.0 4.0 -1 ------- null}
r -t 0.0448 -s 2 -d 0 -p cbr -e 1000 -c 0 -i 10 -a 0 -x {2.0 4.1 3 ------- null}
+ -t 0.0448 -s 0 -d 4 -p cbr -e 1000 -c 0 -i 10 -a 0 -x {2.0 4.1 3 ------- null}
r -t 0.0448 -s 3 -d 0 -p cbr -e 1000 -c 0 -i 11 -a 0 -x {3.0 4.2 3 ------- null}
+ -t 0.0448 -s 0 -d 4 -p cbr -e 1000 -c 0 -i 11 -a 0 -x {3.0 4.2 3 ------- null}
- -t 0.04488 -s 0 -d 4 -p cbr -e 1000 -c 0 -i 10 -a 0 -x {2.0 4.1 3 ------- null}
h -t 0.04488 -s 0 -d 4 -p cbr -e 1000 -c 0 -i 10 -a 0 -x {2.0 4.1 -1 ------- null}
- -t 0.04496 -s 0 -d 4 -p cbr -e 1000 -c 0 -i 11 -a 0 -x {3.0 4.2 3 ------- null}
h -t 0.04496 -s 0 -d 4 -p cbr -e 1000 -c 0 -i 11 -a 0 -x {3.0 4.2 -1 ------- null}
+ -t 0.048 -s 1 -d 0 -p cbr -e 1000 -c 2 -i 18 -a 2 -x {1.0 4.0 6 ------- null}
- -t 0.048 -s 1 -d 0 -p cbr -e 1000 -c 2 -i 18 -a 2 -x {1.0 4.0 6 ------- null}
h -t 0.048 -s 1 -d 0 -p cbr -e 1000 -c 2 -i 18 -a 2 -x {1.0 4.0 -1 ------- null}
+ -t 0.048 -s 2 -d 0 -p cbr -e 1000 -c 0 -i 19 -a 0 -x {2.0 4.1 6 ------- null}
- -t 0.048 -s 2 -d 0 -p cbr -e 1000 -c 0 -i 19 -a 0 -x {2.0 4.1 6 ------- null}
h -t 0.048 -s 2 -d 0 -p cbr -e 1000 -c 0 -i 19 -a 0 -x {2.0 4.1 -1 ------- null}
+ -t 0.048 -s 3 -d 0 -p cbr -e 1000 -c 0 -i 20 -a 0 -x {3.0 4.2 6 ------- null}
- -t 0.048 -s 3 -d 0 -p cbr -e 1000 -c 0 -i 20 -a 0 -x {3.0 4.2 6 ------- null}
h -t 0.048 -s 3 -d 0 -p cbr -e 1000 -c 0 -i 20 -a 0 -x {3.0 4.2 -1 ------- null}
r -t 0.04888 -s 0 -d 4 -p cbr -e 1000 -c 2 -i 3 -a 2 -x {1.0 4.0 1 ------- null}
r -t 0.04896 -s 0 -d 4 -p cbr -e 1000 -c 0 -i 4 -a 0 -x {2.0 4.1 1 ------- null}
r -t 0.04904 -s 0 -d 4 -p cbr -e 1000 -c 0 -i 5 -a 0 -x {3.0 4.2 1 ------- null}
r -t 0.0528 -s 1 -d 0 -p cbr -e 1000 -c 2 -i 12 -a 2 -x {1.0 4.0 4 ------- null}
+ -t 0.0528 -s 0 -d 4 -p cbr -e 1000 -c 2 -i 12 -a 2 -x {1.0 4.0 4 ------- null}
- -t 0.0528 -s 0 -d 4 -p cbr -e 1000 -c 2 -i 12 -a 2 -x {1.0 4.0 4 ------- null}
h -t 0.0528 -s 0 -d 4 -p cbr -e 1000 -c 2 -i 12 -a 2 -x {1.0 4.0 -1 ------- null}
r -t 0.0528 -s 2 -d 0 -p cbr -e 1000 -c 0 -i 13 -a 0 -x {2.0 4.1 4 ------- null}
+ -t 0.0528 -s 0 -d 4 -p cbr -e 1000 -c 0 -i 13 -a 0 -x {2.0 4.1 4 ------- null}
r -t 0.0528 -s 3 -d 0 -p cbr -e 1000 -c 0 -i 14 -a 0 -x {3.0 4.2 4 ------- null}
+ -t 0.0528 -s 0 -d 4 -p cbr -e 1000 -c 0 -i 14 -a 0 -x {3.0 4.2 4 ------- null}
- -t 0.05288 -s 0 -d 4 -p cbr -e 1000 -c 0 -i 13 -a 0 -x {2.0 4.1 4 ------- null}
h -t 0.05288 -s 0 -d 4 -p cbr -e 1000 -c 0 -i 13 -a 0 -x {2.0 4.1 -1 ------- null}
- -t 0.05296 -s 0 -d 4 -p cbr -e 1000 -c 0 -i 14 -a 0 -x {3.0 4.2 4 ------- null}
h -t 0.05296 -s 0 -d 4 -p cbr -e 1000 -c 0 -i 14 -a 0 -x {3.0 4.2 -1 ------- null}
+ -t 0.056 -s 1 -d 0 -p cbr -e 1000 -c 2 -i 21 -a 2 -x {1.0 4.0 7 ------- null}
- -t 0.056 -s 1 -d 0 -p cbr -e 1000 -c 2 -i 21 -a 2 -x {1.0 4.0 7 ------- null}
h -t 0.056 -s 1 -d 0 -p cbr -e 1000 -c 2 -i 21 -a 2 -x {1.0 4.0 -1 ------- null}
+ -t 0.056 -s 2 -d 0 -p cbr -e 1000 -c 0 -i 22 -a 0 -x {2.0 4.1 7 ------- null}
- -t 0.056 -s 2 -d 0 -p cbr -e 1000 -c 0 -i 22 -a 0 -x {2.0 4.1 7 ------- null}
h -t 0.056 -s 2 -d 0 -p cbr -e 1000 -c 0 -i 22 -a 0 -x {2.0 4.1 -1 ------- null}
+ -t 0.056 -s 3 -d 0 -p cbr -e 1000 -c 0 -i 23 -a 0 -x {3.0 4.2 7 ------- null}
- -t 0.056 -s 3 -d 0 -p cbr -e 1000 -c 0 -i 23 -a 0 -x {3.0 4.2 7 ------- null}
h -t 0.056 -s 3 -d 0 -p cbr -e 1000 -c 0 -i 23 -a 0 -x {3.0 4.2 -1 ------- null}
r -t 0.05688 -s 0 -d 4 -p cbr -e 1000 -c 2 -i 6 -a 2 -x {1.0 4.0 2 ------- null}
r -t 0.05696 -s 0 -d 4 -p cbr -e 1000 -c 0 -i 7 -a 0 -x {2.0 4.1 2 ------- null}
r -t 0.05704 -s 0 -d 4 -p cbr -e 1000 -c 0 -i 8 -a 0 -x {3.0 4.2 2 ------- null}
r -t 0.0608 -s 1 -d 0 -p cbr -e 1000 -c 2 -i 15 -a 2 -x {1.0 4.0 5 ------- null}
+ -t 0.0608 -s 0 -d 4 -p cbr -e 1000 -c 2 -i 15 -a 2 -x {1.0 4.0 5 ------- null}
- -t 0.0608 -s 0 -d 4 -p cbr -e 1000 -c 2 -i 15 -a 2 -x {1.0 4.0 5 ------- null}
h -t 0.0608 -s 0 -d 4 -p cbr -e 1000 -c 2 -i 15 -a 2 -x {1.0 4.0 -1 ------- null}
r -t 0.0608 -s 2 -d 0 -p cbr -e 1000 -c 0 -i 16 -a 0 -x {2.0 4.1 5 ------- null}
+ -t 0.0608 -s 0 -d 4 -p cbr -e 1000 -c 0 -i 16 -a 0 -x {2.0 4.1 5 ------- null}
r -t 0.0608 -s 3 -d 0 -p cbr -e 1000 -c 0 -i 17 -a 0 -x {3.0 4.2 5 ------- null}
+ -t 0.0608 -s 0 -d 4 -p cbr -e 1000 -c 0 -i 17 -a 0 -x {3.0 4.2 5 ------- null}
- -t 0.06088 -s 0 -d 4 -p cbr -e 1000 -c 0 -i 16 -a 0 -x {2.0 4.1 5 ------- null}
h -t 0.06088 -s 0 -d 4 -p cbr -e 1000 -c 0 -i 16 -a 0 -x {2.0 4.1 -1 ------- null}
- -t 0.06096 -s 0 -d 4 -p cbr -e 1000 -c 0 -i 17 -a 0 -x {3.0 4.2 5 ------- null}
h -t 0.06096 -s 0 -d 4 -p cbr -e 1000 -c 0 -i 17 -a 0 -x {3.0 4.2 -1 ------- null}
+ -t 0.064 -s 1 -d 0 -p cbr -e 1000 -c 2 -i 24 -a 2 -x {1.0 4.0 8 ------- null}
- -t 0.064 -s 1 -d 0 -p cbr -e 1000 -c 2 -i 24 -a 2 -x {1.0 4.0 8 ------- null}
h -t 0.064 -s 1 -d 0 -p cbr -e 1000 -c 2 -i 24 -a 2 -x {1.0 4.0 -1 ------- null}
+ -t 0.064 -s 2 -d 0 -p cbr -e 1000 -c 0 -i 25 -a 0 -x {2.0 4.1 8 ------- null}
- -t 0.064 -s 2 -d 0 -p cbr -e 1000 -c 0 -i 25 -a 0 -x {2.0 4.1 8 ------- null}
h -t 0.064 -s 2 -d 0 -p cbr -e 1000 -c 0 -i 25 -a 0 -x {2.0 4.1 -1 ------- null}
+ -t 0.064 -s 3 -d 0 -p cbr -e 1000 -c 0 -i 26 -a 0 -x {3.0 4.2 8 ------- null}
- -t 0.064 -s 3 -d 0 -p cbr -e 1000 -c 0 -i 26 -a 0 -x {3.0 4.2 8 ------- null}
h -t 0.064 -s 3 -d 0 -p cbr -e 1000 -c 0 -i 26 -a 0 -x {3.0 4.2 -1 ------- null}
r -t 0.06488 -s 0 -d 4 -p cbr -e 1000 -c 2 -i 9 -a 2 -x {1.0 4.0 3 ------- null}
r -t 0.06496 -s 0 -d 4 -p cbr -e 1000 -c 0 -i 10 -a 0 -x {2.0 4.1 3 ------- null}
r -t 0.06504 -s 0 -d 4 -p cbr -e 1000 -c 0 -i 11 -a 0 -x {3.0 4.2 3 ------- null}
r -t 0.0688 -s 1 -d 0 -p cbr -e 1000 -c 2 -i 18 -a 2 -x {1.0 4.0 6 ------- null}
+ -t 0.0688 -s 0 -d 4 -p cbr -e 1000 -c 2 -i 18 -a 2 -x {1.0 4.0 6 ------- null}
- -t 0.0688 -s 0 -d 4 -p cbr -e 1000 -c 2 -i 18 -a 2 -x {1.0 4.0 6 ------- null}
h -t 0.0688 -s 0 -d 4 -p cbr -e 1000 -c 2 -i 18 -a 2 -x {1.0 4.0 -1 ------- null}
r -t 0.0688 -s 2 -d 0 -p cbr -e 1000 -c 0 -i 19 -a 0 -x {2.0 4.1 6 ------- null}
+ -t 0.0688 -s 0 -d 4 -p cbr -e 1000 -c 0 -i 19 -a 0 -x {2.0 4.1 6 ------- null}
r -t 0.0688 -s 3 -d 0 -p cbr -e 1000 -c 0 -i 20 -a 0 -x {3.0 4.2 6 ------- null}
+ -t 0.0688 -s 0 -d 4 -p cbr -e 1000 -c 0 -i 20 -a 0 -x {3.0 4.2 6 ------- null}
- -t 0.06888 -s 0 -d 4 -p cbr -e 1000 -c 0 -i 19 -a 0 -x {2.0 4.1 6 ------- null}
h -t 0.06888 -s 0 -d 4 -p cbr -e 1000 -c 0 -i 19 -a 0 -x {2.0 4.1 -1 ------- null}
- -t 0.06896 -s 0 -d 4 -p cbr -e 1000 -c 0 -i 20 -a 0 -x {3.0 4.2 6 ------- null}
h -t 0.06896 -s 0 -d 4 -p cbr -e 1000 -c 0 -i 20 -a 0 -x {3.0 4.2 -1 ------- null}
+ -t 0.072 -s 1 -d 0 -p cbr -e 1000 -c 2 -i 27 -a 2 -x {1.0 4.0 9 ------- null}
- -t 0.072 -s 1 -d 0 -p cbr -e 1000 -c 2 -i 27 -a 2 -x {1.0 4.0 9 ------- null}
h -t 0.072 -s 1 -d 0 -p cbr -e 1000 -c 2 -i 27 -a 2 -x {1.0 4.0 -1 ------- null}
+ -t 0.072 -s 2 -d 0 -p cbr -e 1000 -c 0 -i 28 -a 0 -x {2.0 4.1 9 ------- null}
- -t 0.072 -s 2 -d 0 -p cbr -e 1000 -c 0 -i 28 -a 0 -x {2.0 4.1 9 ------- null}
h -t 0.072 -s 2 -d 0 -p cbr -e 1000 -c 0 -i 28 -a 0 -x {2.0 4.1 -1 ------- null}
+ -t 0.072 -s 3 -d 0 -p cbr -e 1000 -c 0 -i 29 -a 0 -x {3.0 4.2 9 ------- null}
- -t 0.072 -s 3 -d 0 -p cbr -e 1000 -c 0 -i 29 -a 0 -x {3.0 4.2 9 ------- null}
h -t 0.072 -s 3 -d 0 -p cbr -e 1000 -c 0 -i 29 -a 0 -x {3.0 4.2 -1 ------- null}
r -t 0.07288 -s 0 -d 4 -p cbr -e 1000 -c 2 -i 12 -a 2 -x {1.0 4.0 4 ------- null}
r -t 0.07296 -s 0 -d 4 -p cbr -e 1000 -c 0 -i 13 -a 0 -x {2.0 4.1 4 ------- null}
r -t 0.07304 -s 0 -d 4 -p cbr -e 1000 -c 0 -i 14 -a 0 -x {3.0 4.2 4 ------- null}
r -t 0.0768 -s 1 -d 0 -p cbr -e 1000 -c 2 -i 21 -a 2 -x {1.0 4.0 7 ------- null}
+ -t 0.0768 -s 0 -d 4 -p cbr -e 1000 -c 2 -i 21 -a 2 -x {1.0 4.0 7 ------- null}
- -t 0.0768 -s 0 -d 4 -p cbr -e 1000 -c 2 -i 21 -a 2 -x {1.0 4.0 7 ------- null}
h -t 0.0768 -s 0 -d 4 -p cbr -e 1000 -c 2 -i 21 -a 2 -x {1.0 4.0 -1 ------- null}
r -t 0.0768 -s 2 -d 0 -p cbr -e 1000 -c 0 -i 22 -a 0 -x {2.0 4.1 7 ------- null}
+ -t 0.0768 -s 0 -d 4 -p cbr -e 1000 -c 0 -i 22 -a 0 -x {2.0 4.1 7 ------- null}
r -t 0.0768 -s 3 -d 0 -p cbr -e 1000 -c 0 -i 23 -a 0 -x {3.0 4.2 7 ------- null}
+ -t 0.0768 -s 0 -d 4 -p cbr -e 1000 -c 0 -i 23 -a 0 -x {3.0 4.2 7 ------- null}
- -t 0.07688 -s 0 -d 4 -p cbr -e 1000 -c 0 -i 22 -a 0 -x {2.0 4.1 7 ------- null}
h -t 0.07688 -s 0 -d 4 -p cbr -e 1000 -c 0 -i 22 -a 0 -x {2.0 4.1 -1 ------- null}
- -t 0.07696 -s 0 -d 4 -p cbr -e 1000 -c 0 -i 23 -a 0 -x {3.0 4.2 7 ------- null}
h -t 0.07696 -s 0 -d 4 -p cbr -e 1000 -c 0 -i 23 -a 0 -x {3.0 4.2 -1 ------- null}
+ -t 0.08 -s 1 -d 0 -p cbr -e 1000 -c 2 -i 30 -a 2 -x {1.0 4.0 10 ------- null}
- -t 0.08 -s 1 -d 0 -p cbr -e 1000 -c 2 -i 30 -a 2 -x {1.0 4.0 10 ------- null}
h -t 0.08 -s 1 -d 0 -p cbr -e 1000 -c 2 -i 30 -a 2 -x {1.0 4.0 -1 ------- null}
+ -t 0.08 -s 2 -d 0 -p cbr -e 1000 -c 0 -i 31 -a 0 -x {2.0 4.1 10 ------- null}
- -t 0.08 -s 2 -d 0 -p cbr -e 1000 -c 0 -i 31 -a 0 -x {2.0 4.1 10 ------- null}
h -t 0.08 -s 2 -d 0 -p cbr -e 1000 -c 0 -i 31 -a 0 -x {2.0 4.1 -1 ------- null}
+ -t 0.08 -s 3 -d 0 -p cbr -e 1000 -c 0 -i 32 -a 0 -x {3.0 4.2 10 ------- null}
- -t 0.08 -s 3 -d 0 -p cbr -e 1000 -c 0 -i 32 -a 0 -x {3.0 4.2 10 ------- null}
h -t 0.08 -s 3 -d 0 -p cbr -e 1000 -c 0 -i 32 -a 0 -x {3.0 4.2 -1 ------- null}
r -t 0.08088 -s 0 -d 4 -p cbr -e 1000 -c 2 -i 15 -a 2 -x {1.0 4.0 5 ------- null}
r -t 0.08096 -s 0 -d 4 -p cbr -e 1000 -c 0 -i 16 -a 0 -x {2.0 4.1 5 ------- null}
r -t 0.08104 -s 0 -d 4 -p cbr -e 1000 -c 0 -i 17 -a 0 -x {3.0 4.2 5 ------- null}
r -t 0.0848 -s 1 -d 0 -p cbr -e 1000 -c 2 -i 24 -a 2 -x {1.0 4.0 8 ------- null}
+ -t 0.0848 -s 0 -d 4 -p cbr -e 1000 -c 2 -i 24 -a 2 -x {1.0 4.0 8 ------- null}
- -t 0.0848 -s 0 -d 4 -p cbr -e 1000 -c 2 -i 24 -a 2 -x {1.0 4.0 8 ------- null}
h -t 0.0848 -s 0 -d 4 -p cbr -e 1000 -c 2 -i 24 -a 2 -x {1.0 4.0 -1 ------- null}
r -t 0.0848 -s 2 -d 0 -p cbr -e 1000 -c 0 -i 25 -a 0 -x {2.0 4.1 8 ------- null}
+ -t 0.0848 -s 0 -d 4 -p cbr -e 1000 -c 0 -i 25 -a 0 -x {2.0 4.1 8 ------- null}
r -t 0.0848 -s 3 -d 0 -p cbr -e 1000 -c 0 -i 26 -a 0 -x {3.0 4.2 8 ------- null}
+ -t 0.0848 -s 0 -d 4 -p cbr -e 1000 -c 0 -i 26 -a 0 -x {3.0 4.2 8 ------- null}
- -t 0.08488 -s 0 -d 4 -p cbr -e 1000 -c 0 -i 25 -a 0 -x {2.0 4.1 8 ------- null}
h -t 0.08488 -s 0 -d 4 -p cbr -e 1000 -c 0 -i 25 -a 0 -x {2.0 4.1 -1 ------- null}
- -t 0.08496 -s 0 -d 4 -p cbr -e 1000 -c 0 -i 26 -a 0 -x {3.0 4.2 8 ------- null}
h -t 0.08496 -s 0 -d 4 -p cbr -e 1000 -c 0 -i 26 -a 0 -x {3.0 4.2 -1 ------- null}
+ -t 0.088 -s 1 -d 0 -p cbr -e 1000 -c 2 -i 33 -a 2 -x {1.0 4.0 11 ------- null}
- -t 0.088 -s 1 -d 0 -p cbr -e 1000 -c 2 -i 33 -a 2 -x {1.0 4.0 11 ------- null}
h -t 0.088 -s 1 -d 0 -p cbr -e 1000 -c 2 -i 33 -a 2 -x {1.0 4.0 -1 ------- null}
+ -t 0.088 -s 2 -d 0 -p cbr -e 1000 -c 0 -i 34 -a 0 -x {2.0 4.1 11 ------- null}
- -t 0.088 -s 2 -d 0 -p cbr -e 1000 -c 0 -i 34 -a 0 -x {2.0 4.1 11 ------- null}
h -t 0.088 -s 2 -d 0 -p cbr -e 1000 -c 0 -i 34 -a 0 -x {2.0 4.1 -1 ------- null}
+ -t 0.088 -s 3 -d 0 -p cbr -e 1000 -c 0 -i 35 -a 0 -x {3.0 4.2 11 ------- null}
- -t 0.088 -s 3 -d 0 -p cbr -e 1000 -c 0 -i 35 -a 0 -x {3.0 4.2 11 ------- null}
h -t 0.088 -s 3 -d 0 -p cbr -e 1000 -c 0 -i 35 -a 0 -x {3.0 4.2 -1 ------- null}
r -t 0.08888 -s 0 -d 4 -p cbr -e 1000 -c 2 -i 18 -a 2 -x {1.0 4.0 6 ------- null}
r -t 0.08896 -s 0 -d 4 -p cbr -e 1000 -c 0 -i 19 -a 0 -x {2.0 4.1 6 ------- null}
r -t 0.08904 -s 0 -d 4 -p cbr -e 1000 -c 0 -i 20 -a 0 -x {3.0 4.2 6 ------- null}
r -t 0.0928 -s 1 -d 0 -p cbr -e 1000 -c 2 -i 27 -a 2 -x {1.0 4.0 9 ------- null}
+ -t 0.0928 -s 0 -d 4 -p cbr -e 1000 -c 2 -i 27 -a 2 -x {1.0 4.0 9 ------- null}
- -t 0.0928 -s 0 -d 4 -p cbr -e 1000 -c 2 -i 27 -a 2 -x {1.0 4.0 9 ------- null}
h -t 0.0928 -s 0 -d 4 -p cbr -e 1000 -c 2 -i 27 -a 2 -x {1.0 4.0 -1 ------- null}
r -t 0.0928 -s 2 -d 0 -p cbr -e 1000 -c 0 -i 28 -a 0 -x {2.0 4.1 9 ------- null}
+ -t 0.0928 -s 0 -d 4 -p cbr -e 1000 -c 0 -i 28 -a 0 -x {2.0 4.1 9 ------- null}
r -t 0.0928 -s 3 -d 0 -p cbr -e 1000 -c 0 -i 29 -a 0 -x {3.0 4.2 9 ------- null}
+ -t 0.0928 -s 0 -d 4 -p cbr -e 1000 -c 0 -i 29 -a 0 -x {3.0 4.2 9 ------- null}
- -t 0.09288 -s 0 -d 4 -p cbr -e 1000 -c 0 -i 28 -a 0 -x {2.0 4.1 9 ------- null}
h -t 0.09288 -s 0 -d 4 -p cbr -e 1000 -c 0 -i 28 -a 0 -x {2.0 4.1 -1 ------- null}
- -t 0.09296 -s 0 -d 4 -p cbr -e 1000 -c 0 -i 29 -a 0 -x {3.0 4.2 9 ------- null}
h -t 0.09296 -s 0 -d 4 -p cbr -e 1000 -c 0 -i 29 -a 0 -x {3.0 4.2 -1 ------- null}
+ -t 0.096 -s 1 -d 0 -p cbr -e 1000 -c 2 -i 36 -a 2 -x {1.0 4.0 12 ------- null}
- -t 0.096 -s 1 -d 0 -p cbr -e 1000 -c 2 -i 36 -a 2 -x {1.0 4.0 12 ------- null}
h -t 0.096 -s 1 -d 0 -p cbr -e 1000 -c 2 -i 36 -a 2 -x {1.0 4.0 -1 ------- null}
+ -t 0.096 -s 2 -d 0 -p cbr -e 1000 -c 0 -i 37 -a 0 -x {2.0 4.1 12 ------- null}
- -t 0.096 -s 2 -d 0 -p cbr -e 1000 -c 0 -i 37 -a 0 -x {2.0 4.1 12 ------- null}
h -t 0.096 -s 2 -d 0 -p cbr -e 1000 -c 0 -i 37 -a 0 -x {2.0 4.1 -1 ------- null}
+ -t 0.096 -s 3 -d 0 -p cbr -e 1000 -c 0 -i 38 -a 0 -x {3.0 4.2 12 ------- null}
- -t 0.096 -s 3 -d 0 -p cbr -e 1000 -c 0 -i 38 -a 0 -x {3.0 4.2 12 ------- null}
h -t 0.096 -s 3 -d 0 -p cbr -e 1000 -c 0 -i 38 -a 0 -x {3.0 4.2 -1 ------- null}
r -t 0.09688 -s 0 -d 4 -p cbr -e 1000 -c 2 -i 21 -a 2 -x {1.0 4.0 7 ------- null}
r -t 0.09696 -s 0 -d 4 -p cbr -e 1000 -c 0 -i 22 -a 0 -x {2.0 4.1 7 ------- null}
r -t 0.09704 -s 0 -d 4 -p cbr -e 1000 -c 0 -i 23 -a 0 -x {3.0 4.2 7 ------- null}
r -t 0.1008 -s 1 -d 0 -p cbr -e 1000 -c 2 -i 30 -a 2 -x {1.0 4.0 10 ------- null}
+ -t 0.1008 -s 0 -d 4 -p cbr -e 1000 -c 2 -i 30 -a 2 -x {1.0 4.0 10 ------- null}
- -t 0.1008 -s 0 -d 4 -p cbr -e 1000 -c 2 -i 30 -a 2 -x {1.0 4.0 10 ------- null}
h -t 0.1008 -s 0 -d 4 -p cbr -e 1000 -c 2 -i 30 -a 2 -x {1.0 4.0 -1 ------- null}
r -t 0.1008 -s 2 -d 0 -p cbr -e 1000 -c 0 -i 31 -a 0 -x {2.0 4.1 10 ------- null}
+ -t 0.1008 -s 0 -d 4 -p cbr -e 1000 -c 0 -i 31 -a 0 -x {2.0 4.1 10 ------- null}
r -t 0.1008 -s 3 -d 0 -p cbr -e 1000 -c 0 -i 32 -a 0 -x {3.0 4.2 10 ------- null}
+ -t 0.1008 -s 0 -d 4 -p cbr -e 1000 -c 0 -i 32 -a 0 -x {3.0 4.2 10 ------- null}
- -t 0.10088 -s 0 -d 4 -p cbr -e 1000 -c 0 -i 31 -a 0 -x {2.0 4.1 10 ------- null}
h -t 0.10088 -s 0 -d 4 -p cbr -e 1000 -c 0 -i 31 -a 0 -x {2.0 4.1 -1 ------- null}
- -t 0.10096 -s 0 -d 4 -p cbr -e 1000 -c 0 -i 32 -a 0 -x {3.0 4.2 10 ------- null}
h -t 0.10096 -s 0 -d 4 -p cbr -e 1000 -c 0 -i 32 -a 0 -x {3.0 4.2 -1 ------- null}
+ -t 0.104 -s 1 -d 0 -p cbr -e 1000 -c 2 -i 39 -a 2 -x {1.0 4.0 13 ------- null}
- -t 0.104 -s 1 -d 0 -p cbr -e 1000 -c 2 -i 39 -a 2 -x {1.0 4.0 13 ------- null}
h -t 0.104 -s 1 -d 0 -p cbr -e 1000 -c 2 -i 39 -a 2 -x {1.0 4.0 -1 ------- null}
+ -t 0.104 -s 2 -d 0 -p cbr -e 1000 -c 0 -i 40 -a 0 -x {2.0 4.1 13 ------- null}
- -t 0.104 -s 2 -d 0 -p cbr -e 1000 -c 0 -i 40 -a 0 -x {2.0 4.1 13 ------- null}
h -t 0.104 -s 2 -d 0 -p cbr -e 1000 -c 0 -i 40 -a 0 -x {2.0 4.1 -1 ------- null}
+ -t 0.104 -s 3 -d 0 -p cbr -e 1000 -c 0 -i 41 -a 0 -x {3.0 4.2 13 ------- null}
- -t 0.104 -s 3 -d 0 -p cbr -e 1000 -c 0 -i 41 -a 0 -x {3.0 4.2 13 ------- null}
h -t 0.104 -s 3 -d 0 -p cbr -e 1000 -c 0 -i 41 -a 0 -x {3.0 4.2 -1 ------- null}
r -t 0.10488 -s 0 -d 4 -p cbr -e 1000 -c 2 -i 24 -a 2 -x {1.0 4.0 8 ------- null}
r -t 0.10496 -s 0 -d 4 -p cbr -e 1000 -c 0 -i 25 -a 0 -x {2.0 4.1 8 ------- null}
r -t 0.10504 -s 0 -d 4 -p cbr -e 1000 -c 0 -i 26 -a 0 -x {3.0 4.2 8 ------- null}
r -t 0.1088 -s 1 -d 0 -p cbr -e 1000 -c 2 -i 33 -a 2 -x {1.0 4.0 11 ------- null}
+ -t 0.1088 -s 0 -d 4 -p cbr -e 1000 -c 2 -i 33 -a 2 -x {1.0 4.0 11 ------- null}
- -t 0.1088 -s 0 -d 4 -p cbr -e 1000 -c 2 -i 33 -a 2 -x {1.0 4.0 11 ------- null}
h -t 0.1088 -s 0 -d 4 -p cbr -e 1000 -c 2 -i 33 -a 2 -x {1.0 4.0 -1 ------- null}
r -t 0.1088 -s 2 -d 0 -p cbr -e 1000 -c 0 -i 34 -a 0 -x {2.0 4.1 11 ------- null}
+ -t 0.1088 -s 0 -d 4 -p cbr -e 1000 -c 0 -i 34 -a 0 -x {2.0 4.1 11 ------- null}
r -t 0.1088 -s 3 -d 0 -p cbr -e 1000 -c 0 -i 35 -a 0 -x {3.0 4.2 11 ------- null}
+ -t 0.1088 -s 0 -d 4 -p cbr -e 1000 -c 0 -i 35 -a 0 -x {3.0 4.2 11 ------- null}
- -t 0.10888 -s 0 -d 4 -p cbr -e 1000 -c 0 -i 34 -a 0 -x {2.0 4.1 11 ------- null}
h -t 0.10888 -s 0 -d 4 -p cbr -e 1000 -c 0 -i 34 -a 0 -x {2.0 4.1 -1 ------- null}
- -t 0.10896 -s 0 -d 4 -p cbr -e 1000 -c 0 -i 35 -a 0 -x {3.0 4.2 11 ------- null}
h -t 0.10896 -s 0 -d 4 -p cbr -e 1000 -c 0 -i 35 -a 0 -x {3.0 4.2 -1 ------- null}
+ -t 0.112 -s 1 -d 0 -p cbr -e 1000 -c 2 -i 42 -a 2 -x {1.0 4.0 14 ------- null}
- -t 0.112 -s 1 -d 0 -p cbr -e 1000 -c 2 -i 42 -a 2 -x {1.0 4.0 14 ------- null}
h -t 0.112 -s 1 -d 0 -p cbr -e 1000 -c 2 -i 42 -a 2 -x {1.0 4.0 -1 ------- null}
+ -t 0.112 -s 2 -d 0 -p cbr -e 1000 -c 0 -i 43 -a 0 -x {2.0 4.1 14 ------- null}
- -t 0.112 -s 2 -d 0 -p cbr -e 1000 -c 0 -i 43 -a 0 -x {2.0 4.1 14 ------- null}
h -t 0.112 -s 2 -d 0 -p cbr -e 1000 -c 0 -i 43 -a 0 -x {2.0 4.1 -1 ------- null}
+ -t 0.112 -s 3 -d 0 -p cbr -e 1000 -c 0 -i 44 -a 0 -x {3.0 4.2 14 ------- null}
- -t 0.112 -s 3 -d 0 -p cbr -e 1000 -c 0 -i 44 -a 0 -x {3.0 4.2 14 ------- null}
h -t 0.112 -s 3 -d 0 -p cbr -e 1000 -c 0 -i 44 -a 0 -x {3.0 4.2 -1 ------- null}
r -t 0.11288 -s 0 -d 4 -p cbr -e 1000 -c 2 -i 27 -a 2 -x {1.0 4.0 9 ------- null}
r -t 0.11296 -s 0 -d 4 -p cbr -e 1000 -c 0 -i 28 -a 0 -x {2.0 4.1 9 ------- null}
r -t 0.11304 -s 0 -d 4 -p cbr -e 1000 -c 0 -i 29 -a 0 -x {3.0 4.2 9 ------- null}
r -t 0.1168 -s 1 -d 0 -p cbr -e 1000 -c 2 -i 36 -a 2 -x {1.0 4.0 12 ------- null}
+ -t 0.1168 -s 0 -d 4 -p cbr -e 1000 -c 2 -i 36 -a 2 -x {1.0 4.0 12 ------- null}
- -t 0.1168 -s 0 -d 4 -p cbr -e 1000 -c 2 -i 36 -a 2 -x {1.0 4.0 12 ------- null}
h -t 0.1168 -s 0 -d 4 -p cbr -e 1000 -c 2 -i 36 -a 2 -x {1.0 4.0 -1 ------- null}
r -t 0.1168 -s 2 -d 0 -p cbr -e 1000 -c 0 -i 37 -a 0 -x {2.0 4.1 12 ------- null}
+ -t 0.1168 -s 0 -d 4 -p cbr -e 1000 -c 0 -i 37 -a 0 -x {2.0 4.1 12 ------- null}
r -t 0.1168 -s 3 -d 0 -p cbr -e 1000 -c 0 -i 38 -a 0 -x {3.0 4.2 12 ------- null}
+ -t 0.1168 -s 0 -d 4 -p cbr -e 1000 -c 0 -i 38 -a 0 -x {3.0 4.2 12 ------- null}
- -t 0.11688 -s 0 -d 4 -p cbr -e 1000 -c 0 -i 37 -a 0 -x {2.0 4.1 12 ------- null}
h -t 0.11688 -s 0 -d 4 -p cbr -e 1000 -c 0 -i 37 -a 0 -x {2.0 4.1 -1 ------- null}
- -t 0.11696 -s 0 -d 4 -p cbr -e 1000 -c 0 -i 38 -a 0 -x {3.0 4.2 12 ------- null}
h -t 0.11696 -s 0 -d 4 -p cbr -e 1000 -c 0 -i 38 -a 0 -x {3.0 4.2 -1 ------- null}
+ -t 0.12 -s 1 -d 0 -p cbr -e 1000 -c 2 -i 45 -a 2 -x {1.0 4.0 15 ------- null}
- -t 0.12 -s 1 -d 0 -p cbr -e 1000 -c 2 -i 45 -a 2 -x {1.0 4.0 15 ------- null}
h -t 0.12 -s 1 -d 0 -p cbr -e 1000 -c 2 -i 45 -a 2 -x {1.0 4.0 -1 ------- null}
+ -t 0.12 -s 2 -d 0 -p cbr -e 1000 -c 0 -i 46 -a 0 -x {2.0 4.1 15 ------- null}
- -t 0.12 -s 2 -d 0 -p cbr -e 1000 -c 0 -i 46 -a 0 -x {2.0 4.1 15 ------- null}
h -t 0.12 -s 2 -d 0 -p cbr -e 1000 -c 0 -i 46 -a 0 -x {2.0 4.1 -1 ------- null}
+ -t 0.12 -s 3 -d 0 -p cbr -e 1000 -c 0 -i 47 -a 0 -x {3.0 4.2 15 ------- null}
- -t 0.12 -s 3 -d 0 -p cbr -e 1000 -c 0 -i 47 -a 0 -x {3.0 4.2 15 ------- null}
h -t 0.12 -s 3 -d 0 -p cbr -e 1000 -c 0 -i 47 -a 0 -x {3.0 4.2 -1 ------- null}
r -t 0.12088 -s 0 -d 4 -p cbr -e 1000 -c 2 -i 30 -a 2 -x {1.0 4.0 10 ------- null}
r -t 0.12096 -s 0 -d 4 -p cbr -e 1000 -c 0 -i 31 -a 0 -x {2.0 4.1 10 ------- null}
r -t 0.12104 -s 0 -d 4 -p cbr -e 1000 -c 0 -i 32 -a 0 -x {3.0 4.2 10 ------- null}
r -t 0.1248 -s 1 -d 0 -p cbr -e 1000 -c 2 -i 39 -a 2 -x {1.0 4.0 13 ------- null}
+ -t 0.1248 -s 0 -d 4 -p cbr -e 1000 -c 2 -i 39 -a 2 -x {1.0 4.0 13 ------- null}
- -t 0.1248 -s 0 -d 4 -p cbr -e 1000 -c 2 -i 39 -a 2 -x {1.0 4.0 13 ------- null}
h -t 0.1248 -s 0 -d 4 -p cbr -e 1000 -c 2 -i 39 -a 2 -x {1.0 4.0 -1 ------- null}
r -t 0.1248 -s 2 -d 0 -p cbr -e 1000 -c 0 -i 40 -a 0 -x {2.0 4.1 13 ------- null}
+ -t 0.1248 -s 0 -d 4 -p cbr -e 1000 -c 0 -i 40 -a 0 -x {2.0 4.1 13 ------- null}
r -t 0.1248 -s 3 -d 0 -p cbr -e 1000 -c 0 -i 41 -a 0 -x {3.0 4.2 13 ------- null}
+ -t 0.1248 -s 0 -d 4 -p cbr -e 1000 -c 0 -i 41 -a 0 -x {3.0 4.2 13 ------- null}
- -t 0.12488 -s 0 -d 4 -p cbr -e 1000 -c 0 -i 40 -a 0 -x {2.0 4.1 13 ------- null}
h -t 0.12488 -s 0 -d 4 -p cbr -e 1000 -c 0 -i 40 -a 0 -x {2.0 4.1 -1 ------- null}
- -t 0.12496 -s 0 -d 4 -p cbr -e 1000 -c 0 -i 41 -a 0 -x {3.0 4.2 13 ------- null}
h -t 0.12496 -s 0 -d 4 -p cbr -e 1000 -c 0 -i 41 -a 0 -x {3.0 4.2 -1 ------- null}
+ -t 0.128 -s 1 -d 0 -p cbr -e 1000 -c 2 -i 48 -a 2 -x {1.0 4.0 16 ------- null}
- -t 0.128 -s 1 -d 0 -p cbr -e 1000 -c 2 -i 48 -a 2 -x {1.0 4.0 16 ------- null}
h -t 0.128 -s 1 -d 0 -p cbr -e 1000 -c 2 -i 48 -a 2 -x {1.0 4.0 -1 ------- null}
+ -t 0.128 -s 2 -d 0 -p cbr -e 1000 -c 0 -i 49 -a 0 -x {2.0 4.1 16 ------- null}
- -t 0.128 -s 2 -d 0 -p cbr -e 1000 -c 0 -i 49 -a 0 -x {2.0 4.1 16 ------- null}
h -t 0.128 -s 2 -d 0 -p cbr -e 1000 -c 0 -i 49 -a 0 -x {2.0 4.1 -1 ------- null}
+ -t 0.128 -s 3 -d 0 -p cbr -e 1000 -c 0 -i 50 -a 0 -x {3.0 4.2 16 ------- null}
- -t 0.128 -s 3 -d 0 -p cbr -e 1000 -c 0 -i 50 -a 0 -x {3.0 4.2 16 ------- null}
h -t 0.128 -s 3 -d 0 -p cbr -e 1000 -c 0 -i 50 -a 0 -x {3.0 4.2 -1 ------- null}
r -t 0.12888 -s 0 -d 4 -p cbr -e 1000 -c 2 -i 33 -a 2 -x {1.0 4.0 11 ------- null}
r -t 0.12896 -s 0 -d 4 -p cbr -e 1000 -c 0 -i 34 -a 0 -x {2.0 4.1 11 ------- null}
r -t 0.12904 -s 0 -d 4 -p cbr -e 1000 -c 0 -i 35 -a 0 -x {3.0 4.2 11 ------- null}
r -t 0.1328 -s 1 -d 0 -p cbr -e 1000 -c 2 -i 42 -a 2 -x {1.0 4.0 14 ------- null}
+ -t 0.1328 -s 0 -d 4 -p cbr -e 1000 -c 2 -i 42 -a 2 -x {1.0 4.0 14 ------- null}
- -t 0.1328 -s 0 -d 4 -p cbr -e 1000 -c 2 -i 42 -a 2 -x {1.0 4.0 14 ------- null}
h -t 0.1328 -s 0 -d 4 -p cbr -e 1000 -c 2 -i 42 -a 2 -x {1.0 4.0 -1 ------- null}
r -t 0.1328 -s 2 -d 0 -p cbr -e 1000 -c 0 -i 43 -a 0 -x {2.0 4.1 14 ------- null}