V -t * -v 1.0a5 -a 0
A -t * -n 1 -p 0 -o 0x7fffffff -c 30 -a 1
A -t * -h 1 -m 1073741823 -s 0
c -t * -i 2 -n red
n -t * -a 4 -s 4 -S UP -v circle -c black -i black
n -t * -a 0 -s 0 -S UP -v circle -c black -i black
n -t * -a 1 -s 1 -S UP -v circle -c black -i black
n -t * -a 2 -s 2 -S UP -v circle -c black -i black
n -t * -a 3 -s 3 -S UP -v circle -c black -i black
l -t * -s 0 -d 1 -S UP -r 10000000 -D 0.02 -c black -o left-down
l -t * -s 0 -d 2 -S UP -r 10000000 -D 0.02 -c black -o right-down
l -t * -s 1 -d 3 -S UP -r 10000000 -D 0.02 -c black -o right-down
l -t * -s 1 -d 4 -S UP -r 10000000 -D 0.02 -c black -o left-down
+ -t 0 -s 0 -d 1 -p cbr -e 1000 -c 2 -i 0 -a 2 -x {0.0 1.0 0 ------- null}
- -t 0 -s 0 -d 1 -p cbr -e 1000 -c 2 -i 0 -a 2 -x {0.0 1.0 0 ------- null}
h -t 0 -s 0 -d 1 -p cbr -e 1000 -c 2 -i 0 -a 2 -x {0.0 1.0 -1 ------- null}
+ -t 0.008 -s 0 -d 1 -p cbr -e 1000 -c 2 -i 1 -a 2 -x {0.0 1.0 1 ------- null}
- -t 0.008 -s 0 -d 1 -p cbr -e 1000 -c 2 -i 1 -a 2 -x {0.0 1.0 1 ------- null}
h -t 0.008 -s 0 -d 1 -p cbr -e 1000 -c 2 -i 1 -a 2 -x {0.0 1.0 -1 ------- null}
+ -t 0.016 -s 0 -d 1 -p cbr -e 1000 -c 2 -i 2 -a 2 -x {0.0 1.0 2 ------- null}
- -t 0.016 -s 0 -d 1 -p cbr -e 1000 -c 2 -i 2 -a 2 -x {0.0 1.0 2 ------- null}
h -t 0.016 -s 0 -d 1 -p cbr -e 1000 -c 2 -i 2 -a 2 -x {0.0 1.0 -1 ------- null}
r -t 0.0208 -s 0 -d 1 -p cbr -e 1000 -c 2 -i 0 -a 2 -x {0.0 1.0 0 ------- null}
+ -t 0.024 -s 0 -d 1 -p cbr -e 1000 -c 2 -i 3 -a 2 -x {0.0 1.0 3 ------- null}
- -t 0.024 -s 0 -d 1 -p cbr -e 1000 -c 2 -i 3 -a 2 -x {0.0 1.0 3 ------- null}
h -t 0.024 -s 0 -d 1 -p cbr -e 1000 -c 2 -i 3 -a 2 -x {0.0 1.0 -1 ------- null}
r -t 0.0288 -s 0 -d 1 -p cbr -e 1000 -c 2 -i 1 -a 2 -x {0.0 1.0 1 ------- null}
+ -t 0.032 -s 0 -d 1 -p cbr -e 1000 -c 2 -i 4 -a 2 -x {0.0 1.0 4 ------- null}
- -t 0.032 -s 0 -d 1 -p cbr -e 1000 -c 2 -i 4 -a 2 -x {0.0 1.0 4 ------- null}
h -t 0.032 -s 0 -d 1 -p cbr -e 1000 -c 2 -i 4 -a 2 -x {0.0 1.0 -1 ------- null}
r -t 0.0368 -s 0 -d 1 -p cbr -e 1000 -c 2 -i 2 -a 2 -x {0.0 1.0 2 ------- null}
+ -t 0.04 -s 0 -d 1 -p cbr -e 1000 -c 2 -i 5 -a 2 -x {0.0 1.0 5 ------- null}
- -t 0.04 -s 0 -d 1 -p cbr -e 1000 -c 2 -i 5 -a 2 -x {0.0 1.0 5 ------- null}
h -t 0.04 -s 0 -d 1 -p cbr -e 1000 -c 2 -i 5 -a 2 -x {0.0 1.0 -1 ------- null}
r -t 0.0448 -s 0 -d 1 -p cbr -e 1000 -c 2 -i 3 -a 2 -x {0.0 1.0 3 ------- null}
+ -t 0.048 -s 0 -d 1 -p cbr -e 1000 -c 2 -i 6 -a 2 -x {0.0 1.0 6 ------- null}
- -t 0.048 -s 0 -d 1 -p cbr -e 1000 -c 2 -i 6 -a 2 -x {0.0 1.0 6 ------- null}
h -t 0.048 -s 0 -d 1 -p cbr -e 1000 -c 2 -i 6 -a 2 -x {0.0 1.0 -1 ------- null}
r -t 0.0528 -s 0 -d 1 -p cbr -e 1000 -c 2 -i 4 -a 2 -x {0.0 1.0 4 ------- null}
+ -t 0.056 -s 0 -d 1 -p cbr -e 1000 -c 2 -i 7 -a 2 -x {0.0 1.0 7 ------- null}
- -t 0.056 -s 0 -d 1 -p cbr -e 1000 -c 2 -i 7 -a 2 -x {0.0 1.0 7 ------- null}
h -t 0.056 -s 0 -d 1 -p cbr -e 1000 -c 2 -i 7 -a 2 -x {0.0 1.0 -1 ------- null}
r -t 0.0608 -s 0 -d 1 -p cbr -e 1000 -c 2 -i 5 -a 2 -x {0.0 1.0 5 ------- null}
+ -t 0.064 -s 0 -d 1 -p cbr -e 1000 -c 2 -i 8 -a 2 -x {0.0 1.0 8 ------- null}
- -t 0.064 -s 0 -d 1 -p cbr -e 1000 -c 2 -i 8 -a 2 -x {0.0 1.0 8 ------- null}
h -t 0.064 -s 0 -d 1 -p cbr -e 1000 -c 2 -i 8 -a 2 -x {0.0 1.0 -1 ------- null}
r -t 0.0688 -s 0 -d 1 -p cbr -e 1000 -c 2 -i 6 -a 2 -x {0.0 1.0 6 ------- null}
+ -t 0.072 -s 0 -d 1 -p cbr -e 1000 -c 2 -i 9 -a 2 -x {0.0 1.0 9 ------- null}
- -t 0.072 -s 0 -d 1 -p cbr -e 1000 -c 2 -i 9 -a 2 -x {0.0 1.0 9 ------- null}
h -t 0.072 -s 0 -d 1 -p cbr -e 1000 -c 2 -i 9 -a 2 -x {0.0 1.0 -1 ------- null}
r -t 0.0768 -s 0 -d 1 -p cbr -e 1000 -c 2 -i 7 -a 2 -x {0.0 1.0 7 ------- null}
+ -t 0.08 -s 0 -d 1 -p cbr -e 1000 -c 2 -i 10 -a 2 -x {0.0 1.0 10 ------- null}
- -t 0.08 -s 0 -d 1 -p cbr -e 1000 -c 2 -i 10 -a 2 -x {0.0 1.0 10 ------- null}
h -t 0.08 -s 0 -d 1 -p cbr -e 1000 -c 2 -i 10 -a 2 -x {0.0 1.0 -1 ------- null}
r -t 0.0848 -s 0 -d 1 -p cbr -e 1000 -c 2 -i 8 -a 2 -x {0.0 1.0 8 ------- null}
+ -t 0.088 -s 0 -d 1 -p cbr -e 1000 -c 2 -i 11 -a 2 -x {0.0 1.0 11 ------- null}
- -t 0.088 -s 0 -d 1 -p cbr -e 1000 -c 2 -i 11 -a 2 -x {0.0 1.0 11 ------- null}
h -t 0.088 -s 0 -d 1 -p cbr -e 1000 -c 2 -i 11 -a 2 -x {0.0 1.0 -1 ------- null}
r -t 0.0928 -s 0 -d 1 -p cbr -e 1000 -c 2 -i 9 -a 2 -x {0.0 1.0 9 ------- null}
+ -t 0.096 -s 0 -d 1 -p cbr -e 1000 -c 2 -i 12 -a 2 -x {0.0 1.0 12 ------- null}
- -t 0.096 -s 0 -d 1 -p cbr -e 1000 -c 2 -i 12 -a 2 -x {0.0 1.0 12 ------- null}
h -t 0.096 -s 0 -d 1 -p cbr -e 1000 -c 2 -i 12 -a 2 -x {0.0 1.0 -1 ------- null}
r -t 0.1008 -s 0 -d 1 -p cbr -e 1000 -c 2 -i 10 -a 2 -x {0.0 1.0 10 ------- null}
+ -t 0.104 -s 0 -d 1 -p cbr -e 1000 -c 2 -i 13 -a 2 -x {0.0 1.0 13 ------- null}
- -t 0.104 -s 0 -d 1 -p cbr -e 1000 -c 2 -i 13 -a 2 -x {0.0 1.0 13 ------- null}
h -t 0.104 -s 0 -d 1 -p cbr -e 1000 -c 2 -i 13 -a 2 -x {0.0 1.0 -1 ------- null}
r -t 0.1088 -s 0 -d 1 -p cbr -e 1000 -c 2 -i 11 -a 2 -x {0.0 1.0 11 ------- null}
+ -t 0.112 -s 0 -d 1 -p cbr -e 1000 -c 2 -i 14 -a 2 -x {0.0 1.0 14 ------- null}
- -t 0.112 -s 0 -d 1 -p cbr -e 1000 -c 2 -i 14 -a 2 -x {0.0 1.0 14 ------- null}
h -t 0.112 -s 0 -d 1 -p cbr -e 1000 -c 2 -i 14 -a 2 -x {0.0 1.0 -1 ------- null}
r -t 0.1168 -s 0 -d 1 -p cbr -e 1000 -c 2 -i 12 -a 2 -x {0.0 1.0 12 ------- null}
+ -t 0.12 -s 0 -d 1 -p cbr -e 1000 -c 2 -i 15 -a 2 -x {0.0 1.0 15 ------- null}
- -t 0.12 -s 0 -d 1 -p cbr -e 1000 -c 2 -i 15 -a 2 -x {0.0 1.0 15 ------- null}
h -t 0.12 -s 0 -d 1 -p cbr -e 1000 -c 2 -i 15 -a 2 -x {0.0 1.0 -1 ------- null}
r -t 0.1248 -s 0 -d 1 -p cbr -e 1000 -c 2 -i 13 -a 2 -x {0.0 1.0 13 ------- null}
+ -t 0.128 -s 0 -d 1 -p cbr -e 1000 -c 2 -i 16 -a 2 -x {0.0 1.0 16 ------- null}
- -t 0.128 -s 0 -d 1 -p cbr -e 1000 -c 2 -i 16 -a 2 -x {0.0 1.0 16 ------- null}
h -t 0.128 -s 0 -d 1 -p cbr -e 1000 -c 2 -i 16 -a 2 -x {0.0 1.0 -1 ------- null}
r -t 0.1328 -s 0 -d 1 -p cbr -e 1000 -c 2 -i 14 -a 2 -x {0.0 1.0 14 ------- null}
+ -t 0.136 -s 0 -d 1 -p cbr -e 1000 -c 2 -i 17 -a 2 -x {0.0 1.0 17 ------- null}
- -t 0.136 -s 0 -d 1 -p cbr -e 1000 -c 2 -i 17 -a 2 -x {0.0 1.0 17 ------- null}
h -t 0.136 -s 0 -d 1 -p cbr -e 1000 -c 2 -i 17 -a 2 -x {0.0 1.0 -1 ------- null}
r -t 0.1408 -s 0 -d 1 -p cbr -e 1000 -c 2 -i 15 -a 2 -x {0.0 1.0 15 ------- null}
+ -t 0.144 -s 0 -d 1 -p cbr -e 1000 -c 2 -i 18 -a 2 -x {0.0 1.0 18 ------- null}
- -t 0.144 -s 0 -d 1 -p cbr -e 1000 -c 2 -i 18 -a 2 -x {0.0 1.0 18 ------- null}
h -t 0.144 -s 0 -d 1 -p cbr -e 1000 -c 2 -i 18 -a 2 -x {0.0 1.0 -1 ------- null}
r -t 0.1488 -s 0 -d 1 -p cbr -e 1000 -c 2 -i 16 -a 2 -x {0.0 1.0 16 ------- null}
+ -t 0.152 -s 0 -d 1 -p cbr -e 1000 -c 2 -i 19 -a 2 -x {0.0 1.0 19 ------- null}
- -t 0.152 -s 0 -d 1 -p cbr -e 1000 -c 2 -i 19 -a 2 -x {0.0 1.0 19 ------- null}
h -t 0.152 -s 0 -d 1 -p cbr -e 1000 -c 2 -i 19 -a 2 -x {0.0 1.0 -1 ------- null}
r -t 0.1568 -s 0 -d 1 -p cbr -e 1000 -c 2 -i 17 -a 2 -x {0.0 1.0 17 ------- null}
+ -t 0.16 -s 0 -d 1 -p cbr -e 1000 -c 2 -i 20 -a 2 -x {0.0 1.0 20 ------- null}
- -t 0.16 -s 0 -d 1 -p cbr -e 1000 -c 2 -i 20 -a 2 -x {0.0 1.0 20 ------- null}
h -t 0.16 -s 0 -d 1 -p cbr -e 1000 -c 2 -i 20 -a 2 -x {0.0 1.0 -1 ------- null}
r -t 0.1648 -s 0 -d 1 -p cbr -e 1000 -c 2 -i 18 -a 2 -x {0.0 1.0 18 ------- null}
+ -t 0.168 -s 0 -d 1 -p cbr -e 1000 -c 2 -i 21 -a 2 -x {0.0 1.0 21 ------- null}
- -t 0.168 -s 0 -d 1 -p cbr -e 1000 -c 2 -i 21 -a 2 -x {0.0 1.0 21 ------- null}
h -t 0.168 -s 0 -d 1 -p cbr -e 1000 -c 2 -i 21 -a 2 -x {0.0 1.0 -1 ------- null}
r -t 0.1728 -s 0 -d 1 -p cbr -e 1000 -c 2 -i 19 -a 2 -x {0.0 1.0 19 ------- null}
+ -t 0.176 -s 0 -d 1 -p cbr -e 1000 -c 2 -i 22 -a 2 -x {0.0 1.0 22 ------- null}
- -t 0.176 -s 0 -d 1 -p cbr -e 1000 -c 2 -i 22 -a 2 -x {0.0 1.0 22 ------- null}
h -t 0.176 -s 0 -d 1 -p cbr -e 1000 -c 2 -i 22 -a 2 -x {0.0 1.0 -1 ------- null}
r -t 0.1808 -s 0 -d 1 -p cbr -e 1000 -c 2 -i 20 -a 2 -x {0.0 1.0 20 ------- null}
+ -t 0.184 -s 0 -d 1 -p cbr -e 1000 -c 2 -i 23 -a 2 -x {0.0 1.0 23 ------- null}
- -t 0.184 -s 0 -d 1 -p cbr -e 1000 -c 2 -i 23 -a 2 -x {0.0 1.0 23 ------- null}
h -t 0.184 -s 0 -d 1 -p cbr -e 1000 -c 2 -i 23 -a 2 -x {0.0 1.0 -1 ------- null}
r -t 0.1888 -s 0 -d 1 -p cbr -e 1000 -c 2 -i 21 -a 2 -x {0.0 1.0 21 ------- null}
+ -t 0.192 -s 0 -d 1 -p cbr -e 1000 -c 2 -i 24 -a 2 -x {0.0 1.0 24 ------- null}
- -t 0.192 -s 0 -d 1 -p cbr -e 1000 -c 2 -i 24 -a 2 -x {0.0 1.0 24 ------- null}
h -t 0.192 -s 0 -d 1 -p cbr -e 1000 -c 2 -i 24 -a 2 -x {0.0 1.0 -1 ------- null}
r -t 0.1968 -s 0 -d 1 -p cbr -e 1000 -c 2 -i 22 -a 2 -x {0.0 1.0 22 ------- null}
+ -t 0.2 -s 0 -d 1 -p cbr -e 1000 -c 2 -i 25 -a 2 -x {0.0 1.0 25 ------- null}
- -t 0.2 -s 0 -d 1 -p cbr -e 1000 -c 2 -i 25 -a 2 -x {0.0 1.0 25 ------- null}
h -t 0.2 -s 0 -d 1 -p cbr -e 1000 -c 2 -i 25 -a 2 -x {0.0 1.0 -1 ------- null}
r -t 0.2048 -s 0 -d 1 -p cbr -e 1000 -c 2 -i 23 -a 2 -x {0.0 1.0 23 ------- null}
+ -t 0.208 -s 0 -d 1 -p cbr -e 1000 -c 2 -i 26 -a 2 -x {0.0 1.0 26 ------- null}
- -t 0.208 -s 0 -d 1 -p cbr -e 1000 -c 2 -i 26 -a 2 -x {0.0 1.0 26 ------- null}
h -t 0.208 -s 0 -d 1 -p cbr -e 1000 -c 2 -i 26 -a 2 -x {0.0 1.0 -1 ------- null}
r -t 0.2128 -s 0 -d 1 -p cbr -e 1000 -c 2 -i 24 -a 2 -x {0.0 1.0 24 ------- null}
+ -t 0.216 -s 0 -d 1 -p cbr -e 1000 -c 2 -i 27 -a 2 -x {0.0 1.0 27 ------- null}
- -t 0.216 -s 0 -d 1 -p cbr -e 1000 -c 2 -i 27 -a 2 -x {0.0 1.0 27 ------- null}
h -t 0.216 -s 0 -d 1 -p cbr -e 1000 -c 2 -i 27 -a 2 -x {0.0 1.0 -1 ------- null}
r -t 0.2208 -s 0 -d 1 -p cbr -e 1000 -c 2 -i 25 -a 2 -x {0.0 1.0 25 ------- null}
+ -t 0.224 -s 0 -d 1 -p cbr -e 1000 -c 2 -i 28 -a 2 -x {0.0 1.0 28 ------- null}
- -t 0.224 -s 0 -d 1 -p cbr -e 1000 -c 2 -i 28 -a 2 -x {0.0 1.0 28 ------- null}
h -t 0.224 -s 0 -d 1 -p cbr -e 1000 -c 2 -i 28 -a 2 -x {0.0 1.0 -1 ------- null}
r -t 0.2288 -s 0 -d 1 -p cbr -e 1000 -c 2 -i 26 -a 2 -x {0.0 1.0 26 ------- null}
+ -t 0.232 -s 0 -d 1 -p cbr -e 1000 -c 2 -i 29 -a 2 -x {0.0 1.0 29 ------- null}
- -t 0.232 -s 0 -d 1 -p cbr -e 1000 -c 2 -i 29 -a 2 -x {0.0 1.0 29 ------- null}
h -t 0.232 -s 0 -d 1 -p cbr -e 1000 -c 2 -i 29 -a 2 -x {0.0 1.0 -1 ------- null}
r -t 0.2368 -s 0 -d 1 -p cbr -e 1000 -c 2 -i 27 -a 2 -x {0.0 1.0 27 ------- null}
+ -t 0.24 -s 0 -d 1 -p cbr -e 1000 -c 2 -i 30 -a 2 -x {0.0 1.0 30 ------- null}
- -t 0.24 -s 0 -d 1 -p cbr -e 1000 -c 2 -i 30 -a 2 -x {0.0 1.0 30 ------- null}
h -t 0.24 -s 0 -d 1 -p cbr -e 1000 -c 2 -i 30 -a 2 -x {0.0 1.0 -1 ------- null}
r -t 0.2448 -s 0 -d 1 -p cbr -e 1000 -c 2 -i 28 -a 2 -x {0.0 1.0 28 ------- null}
+ -t 0.248 -s 0 -d 1 -p cbr -e 1000 -c 2 -i 31 -a 2 -x {0.0 1.0 31 ------- null}
- -t 0.248 -s 0 -d 1 -p cbr -e 1000 -c 2 -i 31 -a 2 -x {0.0 1.0 31 ------- null}
h -t 0.248 -s 0 -d 1 -p cbr -e 1000 -c 2 -i 31 -a 2 -x {0.0 1.0 -1 ------- null}
r -t 0.2528 -s 0 -d 1 -p cbr -e 1000 -c 2 -i 29 -a 2 -x {0.0 1.0 29 ------- null}
+ -t 0.256 -s 0 -d 1 -p cbr -e 1000 -c 2 -i 32 -a 2 -x {0.0 1.0 32 ------- null}
- -t 0.256 -s 0 -d 1 -p cbr -e 1000 -c 2 -i 32 -a 2 -x {0.0 1.0 32 ------- null}
h -t 0.256 -s 0 -d 1 -p cbr -e 1000 -c 2 -i 32 -a 2 -x {0.0 1.0 -1 ------- null}
r -t 0.2608 -s 0 -d 1 -p cbr -e 1000 -c 2 -i 30 -a 2 -x {0.0 1.0 30 ------- null}
+ -t 0.264 -s 0 -d 1 -p cbr -e 1000 -c 2 -i 33 -a 2 -x {0.0 1.0 33 ------- null}
- -t 0.264 -s 0 -d 1 -p cbr -e 1000 -c 2 -i 33 -a 2 -x {0.0 1.0 33 ------- null}
h -t 0.264 -s 0 -d 1 -p cbr -e 1000 -c 2 -i 33 -a 2 -x {0.0 1.0 -1 ------- null}
r -t 0.2688 -s 0 -d 1 -p cbr -e 1000 -c 2 -i 31 -a 2 -x {0.0 1.0 31 ------- null}
+ -t 0.272 -s 0 -d 1 -p cbr -e 1000 -c 2 -i 34 -a 2 -x {0.0 1.0 34 ------- null}
- -t 0.272 -s 0 -d 1 -p cbr -e 1000 -c 2 -i 34 -a 2 -x {0.0 1.0 34 ------- null}
h -t 0.272 -s 0 -d 1 -p cbr -e 1000 -c 2 -i 34 -a 2 -x {0.0 1.0 -1 ------- null}
r -t 0.2768 -s 0 -d 1 -p cbr -e 1000 -c 2 -i 32 -a 2 -x {0.0 1.0 32 ------- null}
+ -t 0.28 -s 0 -d 1 -p cbr -e 1000 -c 2 -i 35 -a 2 -x {0.0 1.0 35 ------- null}
- -t 0.28 -s 0 -d 1 -p cbr -e 1000 -c 2 -i 35 -a 2 -x {0.0 1.0 35 ------- null}
h -t 0.28 -s 0 -d 1 -p cbr -e 1000 -c 2 -i 35 -a 2 -x {0.0 1.0 -1 ------- null}
r -t 0.2848 -s 0 -d 1 -p cbr -e 1000 -c 2 -i 33 -a 2 -x {0.0 1.0 33 ------- null}
+ -t 0.288 -s 0 -d 1 -p cbr -e 1000 -c 2 -i 36 -a 2 -x {0.0 1.0 36 ------- null}
- -t 0.288 -s 0 -d 1 -p cbr -e 1000 -c 2 -i 36 -a 2 -x {0.0 1.0 36 ------- null}
h -t 0.288 -s 0 -d 1 -p cbr -e 1000 -c 2 -i 36 -a 2 -x {0.0 1.0 -1 ------- null}
r -t 0.2928 -s 0 -d 1 -p cbr -e 1000 -c 2 -i 34 -a 2 -x {0.0 1.0 34 ------- null}
+ -t 0.296 -s 0 -d 1 -p cbr -e 1000 -c 2 -i 37 -a 2 -x {0.0 1.0 37 ------- null}
- -t 0.296 -s 0 -d 1 -p cbr -e 1000 -c 2 -i 37 -a 2 -x {0.0 1.0 37 ------- null}
h -t 0.296 -s 0 -d 1 -p cbr -e 1000 -c 2 -i 37 -a 2 -x {0.0 1.0 -1 ------- null}
r -t 0.3008 -s 0 -d 1 -p cbr -e 1000 -c 2 -i 35 -a 2 -x {0.0 1.0 35 ------- null}
+ -t 0.304 -s 0 -d 1 -p cbr -e 1000 -c 2 -i 38 -a 2 -x {0.0 1.0 38 ------- null}
- -t 0.304 -s 0 -d 1 -p cbr -e 1000 -c 2 -i 38 -a 2 -x {0.0 1.0 38 ------- null}
h -t 0.304 -s 0 -d 1 -p cbr -e 1000 -c 2 -i 38 -a 2 -x {0.0 1.0 -1 ------- null}
r -t 0.3088 -s 0 -d 1 -p cbr -e 1000 -c 2 -i 36 -a 2 -x {0.0 1.0 36 ------- null}
+ -t 0.312 -s 0 -d 1 -p cbr -e 1000 -c 2 -i 39 -a 2 -x {0.0 1.0 39 ------- null}
- -t 0.312 -s 0 -d 1 -p cbr -e 1000 -c 2 -i 39 -a 2 -x {0.0 1.0 39 ------- null}
h -t 0.312 -s 0 -d 1 -p cbr -e 1000 -c 2 -i 39 -a 2 -x {0.0 1.0 -1 ------- null}
r -t 0.3168 -s 0 -d 1 -p cbr -e 1000 -c 2 -i 37 -a 2 -x {0.0 1.0 37 ------- null}
+ -t 0.32 -s 0 -d 1 -p cbr -e 1000 -c 2 -i 40 -a 2 -x {0.0 1.0 40 ------- null}
- -t 0.32 -s 0 -d 1 -p cbr -e 1000 -c 2 -i 40 -a 2 -x {0.0 1.0 40 ------- null}
h -t 0.32 -s 0 -d 1 -p cbr -e 1000 -c 2 -i 40 -a 2 -x {0.0 1.0 -1 ------- null}
r -t 0.3248 -s 0 -d 1 -p cbr -e 1000 -c 2 -i 38 -a 2 -x {0.0 1.0 38 ------- null}
+ -t 0.328 -s 0 -d 1 -p cbr -e 1000 -c 2 -i 41 -a 2 -x {0.0 1.0 41 ------- null}
- -t 0.328 -s 0 -d 1 -p cbr -e 1000 -c 2 -i 41 -a 2 -x {0.0 1.0 41 ------- null}
h -t 0.328 -s 0 -d 1 -p cbr -e 1000 -c 2 -i 41 -a 2 -x {0.0 1.0 -1 ------- null}
r -t 0.3328 -s 0 -d 1 -p cbr -e 1000 -c 2 -i 39 -a 2 -x {0.0 1.0 39 ------- null}
+ -t 0.336 -s 0 -d 1 -p cbr -e 1000 -c 2 -i 42 -a 2 -x {0.0 1.0 42 ------- null}
- -t 0.336 -s 0 -d 1 -p cbr -e 1000 -c 2 -i 42 -a 2 -x {0.0 1.0 42 ------- null}
h -t 0.336 -s 0 -d 1 -p cbr -e 1000 -c 2 -i 42 -a 2 -x {0.0 1.0 -1 ------- null}
r -t 0.3408 -s 0 -d 1 -p cbr -e 1000 -c 2 -i 40 -a 2 -x {0.0 1.0 40 ------- null}
+ -t 0.344 -s 0 -d 1 -p cbr -e 1000 -c 2 -i 43 -a 2 -x {0.0 1.0 43 ------- null}
- -t 0.344 -s 0 -d 1 -p cbr -e 1000 -c 2 -i 43 -a 2 -x {0.0 1.0 43 ------- null}
h -t 0.344 -s 0 -d 1 -p cbr -e 1000 -c 2 -i 43 -a 2 -x {0.0 1.0 -1 ------- null}
r -t 0.3488 -s 0 -d 1 -p cbr -e 1000 -c 2 -i 41 -a 2 -x {0.0 1.0 41 ------- null}
+ -t 0.352 -s 0 -d 1 -p cbr -e 1000 -c 2 -i 44 -a 2 -x {0.0 1.0 44 ------- null}
- -t 0.352 -s 0 -d 1 -p cbr -e 1000 -c 2 -i 44 -a 2 -x {0.0 1.0 44 ------- null}
h -t 0.352 -s 0 -d 1 -p cbr -e 1000 -c 2 -i 44 -a 2 -x {0.0 1.0 -1 ------- null}
r -t 0.3568 -s 0 -d 1 -p cbr -e 1000 -c 2 -i 42 -a 2 -x {0.0 1.0 42 ------- null}
+ -t 0.36 -s 0 -d 1 -p cbr -e 1000 -c 2 -i 45 -a 2 -x {0.0 1.0 45 ------- null}
- -t 0.36 -s 0 -d 1 -p cbr -e 1000 -c 2 -i 45 -a 2 -x {0.0 1.0 45 ------- null}
h -t 0.36 -s 0 -d 1 -p cbr -e 1000 -c 2 -i 45 -a 2 -x {0.0 1.0 -1 ------- null}
r -t 0.3648 -s 0 -d 1 -p cbr -e 1000 -c 2 -i 43 -a 2 -x {0.0 1.0 43 ------- null}
+ -t 0.368 -s 0 -d 1 -p cbr -e 1000 -c 2 -i 46 -a 2 -x {0.0 1.0 46 ------- null}
- -t 0.368 -s 0 -d 1 -p cbr -e 1000 -c 2 -i 46 -a 2 -x {0.0 1.0 46 ------- null}
h -t 0.368 -s 0 -d 1 -p cbr -e 1000 -c 2 -i 46 -a 2 -x {0.0 1.0 -1 ------- null}
r -t 0.3728 -s 0 -d 1 -p cbr -e 1000 -c 2 -i 44 -a 2 -x {0.0 1.0 44 ------- null}
+ -t 0.376 -s 0 -d 1 -p cbr -e 1000 -c 2 -i 47 -a 2 -x {0.0 1.0 47 ------- null}
- -t 0.376 -s 0 -d 1 -p cbr -e 1000 -c 2 -i 47 -a 2 -x {0.0 1.0 47 ------- null}
h -t 0.376 -s 0 -d 1 -p cbr -e 1000 -c 2 -i 47 -a 2 -x {0.0 1.0 -1 ------- null}
r -t 0.3808 -s 0 -d 1 -p cbr -e 1000 -c 2 -i 45 -a 2 -x {0.0 1.0 45 ------- null}
+ -t 0.384 -s 0 -d 1 -p cbr -e 1000 -c 2 -i 48 -a 2 -x {0.0 1.0 48 ------- null}
- -t 0.384 -s 0 -d 1 -p cbr -e 1000 -c 2 -i 48 -a 2 -x {0.0 1.0 48 ------- null}
h -t 0.384 -s 0 -d 1 -p cbr -e 1000 -c 2 -i 48 -a 2 -x {0.0 1.0 -1 ------- null}
r -t 0.3888 -s 0 -d 1 -p cbr -e 1000 -c 2 -i 46 -a 2 -x {0.0 1.0 46 ------- null}
+ -t 0.392 -s 0 -d 1 -p cbr -e 1000 -c 2 -i 49 -a 2 -x {0.0 1.0 49 ------- null}
- -t 0.392 -s 0 -d 1 -p cbr -e 1000 -c 2 -i 49 -a 2 -x {0.0 1.0 49 ------- null}
h -t 0.392 -s 0 -d 1 -p cbr -e 1000 -c 2 -i 49 -a 2 -x {0.0 1.0 -1 ------- null}
r -t 0.3968 -s 0 -d 1 -p cbr -e 1000 -c 2 -i 47 -a 2 -x {0.0 1.0 47 ------- null}
+ -t 0.4 -s 0 -d 1 -p cbr -e 1000 -c 2 -i 50 -a 2 -x {0.0 1.0 50 ------- null}
- -t 0.4 -s 0 -d 1 -p cbr -e 1000 -c 2 -i 50 -a 2 -x {0.0 1.0 50 ------- null}
h -t 0.4 -s 0 -d 1 -p cbr -e 1000 -c 2 -i 50 -a 2 -x {0.0 1.0 -1 ------- null}
r -t 0.4048 -s 0 -d 1 -p cbr -e 1000 -c 2 -i 48 -a 2 -x {0.0 1.0 48 ------- null}
+ -t 0.408 -s 0 -d 1 -p cbr -e 1000 -c 2 -i 51 -a 2 -x {0.0 1.0 51 ------- null}
- -t 0.408 -s 0 -d 1 -p cbr -e 1000 -c 2 -i 51 -a 2 -x {0.0 1.0 51 ------- null}
h -t 0.408 -s 0 -d 1 -p cbr -e 1000 -c 2 -i 51 -a 2 -x {0.0 1.0 -1 ------- null}
r -t 0.4128 -s 0 -d 1 -p cbr -e 1000 -c 2 -i 49 -a 2 -x {0.0 1.0 49 ------- null}
+ -t 0.416 -s 0 -d 1 -p cbr -e 1000 -c 2 -i 52 -a 2 -x {0.0 1.0 52 ------- null}
- -t 0.416 -s 0 -d 1 -p cbr -e 1000 -c 2 -i 52 -a 2 -x {0.0 1.0 52 ------- null}
h -t 0.416 -s 0 -d 1 -p cbr -e 1000 -c 2 -i 52 -a 2 -x {0.0 1.0 -1 ------- null}
r -t 0.4208 -s 0 -d 1 -p cbr -e 1000 -c 2 -i 50 -a 2 -x {0.0 1.0 50 ------- null}
+ -t 0.424 -s 0 -d 1 -p cbr -e 1000 -c 2 -i 53 -a 2 -x {0.0 1.0 53 ------- null}
- -t 0.424 -s 0 -d 1 -p cbr -e 1000 -c 2 -i 53 -a 2 -x {0.0 1.0 53 ------- null}
h -t 0.424 -s 0 -d 1 -p cbr -e 1000 -c 2 -i 53 -a 2 -x {0.0 1.0 -1 ------- null}
r -t 0.4288 -s 0 -d 1 -p cbr -e 1000 -c 2 -i 51 -a 2 -x {0.0 1.0 51 ------- null}
+ -t 0.432 -s 0 -d 1 -p cbr -e 1000 -c 2 -i 54 -a 2 -x {0.0 1.0 54 ------- null}
- -t 0.432 -s 0 -d 1 -p cbr -e 1000 -c 2 -i 54 -a 2 -x {0.0 1.0 54 ------- null}
h -t 0.432 -s 0 -d 1 -p cbr -e 1000 -c 2 -i 54 -a 2 -x {0.0 1.0 -1 ------- null}
r -t 0.4368 -s 0 -d 1 -p cbr -e 1000 -c 2 -i 52 -a 2 -x {0.0 1.0 52 ------- null}
+ -t 0.44 -s 0 -d 1 -p cbr -e 1000 -c 2 -i 55 -a 2 -x {0.0 1.0 55 ------- null}
- -t 0.44 -s 0 -d 1 -p cbr -e 1000 -c 2 -i 55 -a 2 -x {0.0 1.0 55 ------- null}
h -t 0.44 -s 0 -d 1 -p cbr -e 1000 -c 2 -i 55 -a 2 -x {0.0 1.0 -1 ------- null}
r -t 0.4448 -s 0 -d 1 -p cbr -e 1000 -c 2 -i 53 -a 2 -x {0.0 1.0 53 ------- null}
+ -t 0.448 -s 0 -d 1 -p cbr -e 1000 -c 2 -i 56 -a 2 -x {0.0 1.0 56 ------- null}
- -t 0.448 -s 0 -d 1 -p cbr -e 1000 -c 2 -i 56 -a 2 -x {0.0 1.0 56 ------- null}
h -t 0.448 -s 0 -d 1 -p cbr -e 1000 -c 2 -i 56 -a 2 -x {0.0 1.0 -1 ------- null}
r -t 0.4528 -s 0 -d 1 -p cbr -e 1000 -c 2 -i 54 -a 2 -x {0.0 1.0 54 ------- null}
+ -t 0.456 -s 0 -d 1 -p cbr -e 1000 -c 2 -i 57 -a 2 -x {0.0 1.0 57 ------- null}
- -t 0.456 -s 0 -d 1 -p cbr -e 1000 -c 2 -i 57 -a 2 -x {0.0 1.0 57 ------- null}
h -t 0.456 -s 0 -d 1 -p cbr -e 1000 -c 2 -i 57 -a 2 -x {0.0 1.0 -1 ------- null}
r -t 0.4608 -s 0 -d 1 -p cbr -e 1000 -c 2 -i 55 -a 2 -x {0.0 1.0 55 ------- null}
+ -t 0.464 -s 0 -d 1 -p cbr -e 1000 -c 2 -i 58 -a 2 -x {0.0 1.0 58 ------- null}
- -t 0.464 -s 0 -d 1 -p cbr -e 1000 -c 2 -i 58 -a 2 -x {0.0 1.0 58 ------- null}
h -t 0.464 -s 0 -d 1 -p cbr -e 1000 -c 2 -i 58 -a 2 -x {0.0 1.0 -1 ------- null}
r -t 0.4688 -s 0 -d 1 -p cbr -e 1000 -c 2 -i 56 -a 2 -x {0.0 1.0 56 ------- null}
+ -t 0.472 -s 0 -d 1 -p cbr -e 1000 -c 2 -i 59 -a 2 -x {0.0 1.0 59 ------- null}
- -t 0.472 -s 0 -d 1 -p cbr -e 1000 -c 2 -i 59 -a 2 -x {0.0 1.0 59 ------- null}
h -t 0.472 -s 0 -d 1 -p cbr -e 1000 -c 2 -i 59 -a 2 -x {0.0 1.0 -1 ------- null}
r -t 0.4768 -s 0 -d 1 -p cbr -e 1000 -c 2 -i 57 -a 2 -x {0.0 1.0 57 ------- null}
+ -t 0.48 -s 0 -d 1 -p cbr -e 1000 -c 2 -i 60 -a 2 -x {0.0 1.0 60 ------- null}
- -t 0.48 -s 0 -d 1 -p cbr -e 1000 -c 2 -i 60 -a 2 -x {0.0 1.0 60 ------- null}
h -t 0.48 -s 0 -d 1 -p cbr -e 1000 -c 2 -i 60 -a 2 -x {0.0 1.0 -1 ------- null}
r -t 0.4848 -s 0 -d 1 -p cbr -e 1000 -c 2 -i 58 -a 2 -x {0.0 1.0 58 ------- null}
+ -t 0.488 -s 0 -d 1 -p cbr -e 1000 -c 2 -i 61 -a 2 -x {0.0 1.0 61 ------- null}
- -t 0.488 -s 0 -d 1 -p cbr -e 1000 -c 2 -i 61 -a 2 -x {0.0 1.0 61 ------- null}
h -t 0.488 -s 0 -d 1 -p cbr -e 1000 -c 2 -i 61 -a 2 -x {0.0 1.0 -1 ------- null}
r -t 0.4928 -s 0 -d 1 -p cbr -e 1000 -c 2 -i 59 -a 2 -x {0.0 1.0 59 ------- null}
+ -t 0.496 -s 0 -d 1 -p cbr -e 1000 -c 2 -i 62 -a 2 -x {0.0 1.0 62 ------- null}
- -t 0.496 -s 0 -d 1 -p cbr -e 1000 -c 2 -i 62 -a 2 -x {0.0 1.0 62 ------- null}
h -t 0.496 -s 0 -d 1 -p cbr -e 1000 -c 2 -i 62 -a 2 -x {0.0 1.0 -1 ------- null}
r -t 0.5008 -s 0 -d 1 -p cbr -e 1000 -c 2 -i 60 -a 2 -x {0.0 1.0 60 ------- null}
+ -t 0.504 -s 0 -d 1 -p cbr -e 1000 -c 2 -i 63 -a 2 -x {0.0 1.0 63 ------- null}
- -t 0.504 -s 0 -d 1 -p cbr -e 1000 -c 2 -i 63 -a 2 -x {0.0 1.0 63 ------- null}
h -t 0.504 -s 0 -d 1 -p cbr -e 1000 -c 2 -i 63 -a 2 -x {0.0 1.0 -1 ------- null}
r -t 0.5088 -s 0 -d 1 -p cbr -e 1000 -c 2 -i 61 -a 2 -x {0.0 1.0 61 ------- null}
+ -t 0.512 -s 0 -d 1 -p cbr -e 1000 -c 2 -i 64 -a 2 -x {0.0 1.0 64 ------- null}
- -t 0.512 -s 0 -d 1 -p cbr -e 1000 -c 2 -i 64 -a 2 -x {0.0 1.0 64 ------- null}
h -t 0.512 -s 0 -d 1 -p cbr -e 1000 -c 2 -i 64 -a 2 -x {0.0 1.0 -1 ------- null}
r -t 0.5168 -s 0 -d 1 -p cbr -e 1000 -c 2 -i 62 -a 2 -x {0.0 1.0 62 ------- null}
+ -t 0.52 -s 0 -d 1 -p cbr -e 1000 -c 2 -i 65 -a 2 -x {0.0 1.0 65 ------- null}
- -t 0.52 -s 0 -d 1 -p cbr -e 1000 -c 2 -i 65 -a 2 -x {0.0 1.0 65 ------- null}
h -t 0.52 -s 0 -d 1 -p cbr -e 1000 -c 2 -i 65 -a 2 -x {0.0 1.0 -1 ------- null}
r -t 0.5248 -s 0 -d 1 -p cbr -e 1000 -c 2 -i 63 -a 2 -x {0.0 1.0 63 ------- null}
+ -t 0.528 -s 0 -d 1 -p cbr -e 1000 -c 2 -i 66 -a 2 -x {0.0 1.0 66 ------- null}
- -t 0.528 -s 0 -d 1 -p cbr -e 1000 -c 2 -i 66 -a 2 -x {0.0 1.0 66 ------- null}
h -t 0.528 -s 0 -d 1 -p cbr -e 1000 -c 2 -i 66 -a 2 -x {0.0 1.0 -1 ------- null}
r -t 0.5328 -s 0 -d 1 -p cbr -e 1000 -c 2 -i 64 -a 2 -x {0.0 1.0 64 ------- null}
+ -t 0.536 -s 0 -d 1 -p cbr -e 1000 -c 2 -i 67 -a 2 -x {0.0 1.0 67 ------- null}
- -t 0.536 -s 0 -d 1 -p cbr -e 1000 -c 2 -i 67 -a 2 -x {0.0 1.0 67 ------- null}
h -t 0.536 -s 0 -d 1 -p cbr -e 1000 -c 2 -i 67 -a 2 -x {0.0 1.0 -1 ------- null}
r -t 0.5408 -s 0 -d 1 -p cbr -e 1000 -c 2 -i 65 -a 2 -x {0.0 1.0 65 ------- null}
+ -t 0.544 -s 0 -d 1 -p cbr -e 1000 -c 2 -i 68 -a 2 -x {0.0 1.0 68 ------- null}
- -t 0.544 -s 0 -d 1 -p cbr -e 1000 -c 2 -i 68 -a 2 -x {0.0 1.0 68 ------- null}
h -t 0.544 -s 0 -d 1 -p cbr -e 1000 -c 2 -i 68 -a 2 -x {0.0 1.0 -1 ------- null}
r -t 0.5488 -s 0 -d 1 -p cbr -e 1000 -c 2 -i 66 -a 2 -x {0.0 1.0 66 ------- null}
+ -t 0.552 -s 0 -d 1 -p cbr -e 1000 -c 2 -i 69 -a 2 -x {0.0 1.0 69 ------- null}
- -t 0.552 -s 0 -d 1 -p cbr -e 1000 -c 2 -i 69 -a 2 -x {0.0 1.0 69 ------- null}
h -t 0.552 -s 0 -d 1 -p cbr -e 1000 -c 2 -i 69 -a 2 -x {0.0 1.0 -1 ------- null}
r -t 0.5568 -s 0 -d 1 -p cbr -e 1000 -c 2 -i 67 -a 2 -x {0.0 1.0 67 ------- null}
+ -t 0.56 -s 0 -d 1 -p cbr -e 1000 -c 2 -i 70 -a 2 -x {0.0 1.0 70 ------- null}
- -t 0.56 -s 0 -d 1 -p cbr -e 1000 -c 2 -i 70 -a 2 -x {0.0 1.0 70 ------- null}
h -t 0.56 -s 0 -d 1 -p cbr -e 1000 -c 2 -i 70 -a 2 -x {0.0 1.0 -1 ------- null}
r -t 0.5648 -s 0 -d 1 -p cbr -e 1000 -c 2 -i 68 -a 2 -x {0.0 1.0 68 ------- null}
+ -t 0.568 -s 0 -d 1 -p cbr -e 1000 -c 2 -i 71 -a 2 -x {0.0 1.0 71 ------- null}
- -t 0.568 -s 0 -d 1 -p cbr -e 1000 -c 2 -i 71 -a 2 -x {0.0 1.0 71 ------- null}
h -t 0.568 -s 0 -d 1 -p cbr -e 1000 -c 2 -i 71 -a 2 -x {0.0 1.0 -1 ------- null}
r -t 0.5728 -s 0 -d 1 -p cbr -e 1000 -c 2 -i 69 -a 2 -x {0.0 1.0 69 ------- null}
+ -t 0.576 -s 0 -d 1 -p cbr -e 1000 -c 2 -i 72 -a 2 -x {0.0 1.0 72 ------- null}
- -t 0.576 -s 0 -d 1 -p cbr -e 1000 -c 2 -i 72 -a 2 -x {0.0 1.0 72 ------- null}
h -t 0.576 -s 0 -d 1 -p cbr -e 1000 -c 2 -i 72 -a 2 -x {0.0 1.0 -1 ------- null}
r -t 0.5808 -s 0 -d 1 -p cbr -e 1000 -c 2 -i 70 -a 2 -x {0.0 1.0 70 ------- null}
+ -t 0.584 -s 0 -d 1 -p cbr -e 1000 -c 2 -i 73 -a 2 -x {0.0 1.0 73 ------- null}
- -t 0.584 -s 0 -d 1 -p cbr -e 1000 -c 2 -i 73 -a 2 -x {0.0 1.0 73 ------- null}
h -t 0.584 -s 0 -d 1 -p cbr -e 1000 -c 2 -i 73 -a 2 -x {0.0 1.0 -1 ------- null}
r -t 0.5888 -s 0 -d 1 -p cbr -e 1000 -c 2 -i 71 -a 2 -x {0.0 1.0 71 ------- null}
+ -t 0.592 -s 0 -d 1 -p cbr -e 1000 -c 2 -i 74 -a 2 -x {0.0 1.0 74 ------- null}
- -t 0.592 -s 0 -d 1 -p cbr -e 1000 -c 2 -i 74 -a 2 -x {0.0 1.0 74 ------- null}
h -t 0.592 -s 0 -d 1 -p cbr -e 1000 -c 2 -i 74 -a 2 -x {0.0 1.0 -1 ------- null}
r -t 0.5968 -s 0 -d 1 -p cbr -e 1000 -c 2 -i 72 -a 2 -x {0.0 1.0 72 ------- null}
+ -t 0.6 -s 0 -d 1 -p cbr -e 1000 -c 2 -i 75 -a 2 -x {0.0 1.0 75 ------- null}
- -t 0.6 -s 0 -d 1 -p cbr -e 1000 -c 2 -i 75 -a 2 -x {0.0 1.0 75 ------- null}
h -t 0.6 -s 0 -d 1 -p cbr -e 1000 -c 2 -i 75 -a 2 -x {0.0 1.0 -1 ------- null}
r -t 0.6048 -s 0 -d 1 -p cbr -e 1000 -c 2 -i 73 -a 2 -x {0.0 1.0 73 ------- null}
+ -t 0.608 -s 0 -d 1 -p cbr -e 1000 -c 2 -i 76 -a 2 -x {0.0 1.0 76 ------- null}
- -t 0.608 -s 0 -d 1 -p cbr -e 1000 -c 2 -i 76 -a 2 -x {0.0 1.0 76 ------- null}
h -t 0.608 -s 0 -d 1 -p cbr -e 1000 -c 2 -i 76 -a 2 -x {0.0 1.0 -1 ------- null}
r -t 0.6128 -s 0 -d 1 -p cbr -e 1000 -c 2 -i 74 -a 2 -x {0.0 1.0 74 ------- null}
+ -t 0.616 -s 0 -d 1 -p cbr -e 1000 -c 2 -i 77 -a 2 -x {0.0 1.0 77 ------- null}
- -t 0.616 -s 0 -d 1 -p cbr -e 1000 -c 2 -i 77 -a 2 -x {0.0 1.0 77 ------- null}
h -t 0.616 -s 0 -d 1 -p cbr -e 1000 -c 2 -i 77 -a 2 -x {0.0 1.0 -1 ------- null}
r -t 0.6208 -s 0 -d 1 -p cbr -e 1000 -c 2 -i 75 -a 2 -x {0.0 1.0 75 ------- null}
+ -t 0.624 -s 0 -d 1 -p cbr -e 1000 -c 2 -i 78 -a 2 -x {0.0 1.0 78 ------- null}
- -t 0.624 -s 0 -d 1 -p cbr -e 1000 -c 2 -i 78 -a 2 -x {0.0 1.0 78 ------- null}
h -t 0.624 -s 0 -d 1 -p cbr -e 1000 -c 2 -i 78 -a 2 -x {0.0 1.0 -1 ------- null}
r -t 0.6288 -s 0 -d 1 -p cbr -e 1000 -c 2 -i 76 -a 2 -x {0.0 1.0 76 ------- null}
+ -t 0.632 -s 0 -d 1 -p cbr -e 1000 -c 2 -i 79 -a 2 -x {0.0 1.0 79 ------- null}
- -t 0.632 -s 0 -d 1 -p cbr -e 1000 -c 2 -i 79 -a 2 -x {0.0 1.0 79 ------- null}
h -t 0.632 -s 0 -d 1 -p cbr -e 1000 -c 2 -i 79 -a 2 -x {0.0 1.0 -1 ------- null}
r -t 0.6368 -s 0 -d 1 -p cbr -e 1000 -c 2 -i 77 -a 2 -x {0.0 1.0 77 ------- null}
+ -t 0.64 -s 0 -d 1 -p cbr -e 1000 -c 2 -i 80 -a 2 -x {0.0 1.0 80 ------- null}
- -t 0.64 -s 0 -d 1 -p cbr -e 1000 -c 2 -i 80 -a 2 -x {0.0 1.0 80 ------- null}
h -t 0.64 -s 0 -d 1 -p cbr -e 1000 -c 2 -i 80 -a 2 -x {0.0 1.0 -1 ------- null}
r -t 0.6448 -s 0 -d 1 -p cbr -e 1000 -c 2 -i 78 -a 2 -x {0.0 1.0 78 ------- null}
+ -t 0.648 -s 0 -d 1 -p cbr -e 1000 -c 2 -i 81 -a 2 -x {0.0 1.0 81 ------- null}
- -t 0.648 -s 0 -d 1 -p cbr -e 1000 -c 2 -i 81 -a 2 -x {0.0 1.0 81 ------- null}
h -t 0.648 -s 0 -d 1 -p cbr -e 1000 -c 2 -i 81 -a 2 -x {0.0 1.0 -1 ------- null}
r -t 0.6528 -s 0 -d 1 -p cbr -e 1000 -c 2 -i 79 -a 2 -x {0.0 1.0 79 ------- null}
+ -t 0.656 -s 0 -d 1 -p cbr -e 1000 -c 2 -i 82 -a 2 -x {0.0 1.0 82 ------- null}
- -t 0.656 -s 0 -d 1 -p cbr -e 1000 -c 2 -i 82 -a 2 -x {0.0 1.0 82 ------- null}
h -t 0.656 -s 0 -d 1 -p cbr -e 1000 -c 2 -i 82 -a 2 -x {0.0 1.0 -1 ------- null}
r -t 0.6608 -s 0 -d 1 -p cbr -e 1000 -c 2 -i 80 -a 2 -x {0.0 1.0 80 ------- null}
+ -t 0.664 -s 0 -d 1 -p cbr -e 1000 -c 2 -i 83 -a 2 -x {0.0 1.0 83 ------- null}
- -t 0.664 -s 0 -d 1 -p cbr -e 1000 -c 2 -i 83 -a 2 -x {0.0 1.0 83 ------- null}
h -t 0.664 -s 0 -d 1 -p cbr -e 1000 -c 2 -i 83 -a 2 -x {0.0 1.0 -1 ------- null}
r -t 0.668800000000001 -s 0 -d 1 -p cbr -e 1000 -c 2 -i 81 -a 2 -x {0.0 1.0 81 ------- null}
+ -t 0.672 -s 0 -d 1 -p cbr -e 1000 -c 2 -i 84 -a 2 -x {0.0 1.0 84 ------- null}
- -t 0.672 -s 0 -d 1 -p cbr -e 1000 -c 2 -i 84 -a 2 -x {0.0 1.0 84 ------- null}
h -t 0.672 -s 0 -d 1 -p cbr -e 1000 -c 2 -i 84 -a 2 -x {0.0 1.0 -1 ------- null}
r -t 0.676800000000001 -s 0 -d 1 -p cbr -e 1000 -c 2 -i 82 -a 2 -x {0.0 1.0 82 ------- null}
+ -t 0.68 -s 0 -d 1 -p cbr -e 1000 -c 2 -i 85 -a 2 -x {0.0 1.0 85 ------- null}
- -t 0.68 -s 0 -d 1 -p cbr -e 1000 -c 2 -i 85 -a 2 -x {0.0 1.0 85 ------- null}
h -t 0.68 -s 0 -d 1 -p cbr -e 1000 -c 2 -i 85 -a 2 -x {0.0 1.0 -1 ------- null}
r -t 0.684800000000001 -s 0 -d 1 -p cbr -e 1000 -c 2 -i 83 -a 2 -x {0.0 1.0 83 ------- null}
+ -t 0.688000000000001 -s 0 -d 1 -p cbr -e 1000 -c 2 -i 86 -a 2 -x {0.0 1.0 86 ------- null}
- -t 0.688000000000001 -s 0 -d 1 -p cbr -e 1000 -c 2 -i 86 -a 2 -x {0.0 1.0 86 ------- null}
h -t 0.688000000000001 -s 0 -d 1 -p cbr -e 1000 -c 2 -i 86 -a 2 -x {0.0 1.0 -1 ------- null}
r -t 0.692800000000001 -s 0 -d 1 -p cbr -e 1000 -c 2 -i 84 -a 2 -x {0.0 1.0 84 ------- null}
+ -t 0.696000000000001 -s 0 -d 1 -p cbr -e 1000 -c 2 -i 87 -a 2 -x {0.0 1.0 87 ------- null}
- -t 0.696000000000001 -s 0 -d 1 -p cbr -e 1000 -c 2 -i 87 -a 2 -x {0.0 1.0 87 ------- null}
h -t 0.696000000000001 -s 0 -d 1 -p cbr -e 1000 -c 2 -i 87 -a 2 -x {0.0 1.0 -1 ------- null}
r -t 0.700800000000001 -s 0 -d 1 -p cbr -e 1000 -c 2 -i 85 -a 2 -x {0.0 1.0 85 ------- null}
+ -t 0.704000000000001 -s 0 -d 1 -p cbr -e 1000 -c 2 -i 88 -a 2 -x {0.0 1.0 88 ------- null}
- -t 0.704000000000001 -s 0 -d 1 -p cbr -e 1000 -c 2 -i 88 -a 2 -x {0.0 1.0 88 ------- null}
h -t 0.704000000000001 -s 0 -d 1 -p cbr -e 1000 -c 2 -i 88 -a 2 -x {0.0 1.0 -1 ------- null}
r -t 0.708800000000001 -s 0 -d 1 -p cbr -e 1000 -c 2 -i 86 -a 2 -x {0.0 1.0 86 ------- null}
+ -t 0.712000000000001 -s 0 -d 1 -p cbr -e 1000 -c 2 -i 89 -a 2 -x {0.0 1.0 89 ------- null}
- -t 0.712000000000001 -s 0 -d 1 -p cbr -e 1000 -c 2 -i 89 -a 2 -x {0.0 1.0 89 ------- null}
h -t 0.712000000000001 -s 0 -d 1 -p cbr -e 1000 -c 2 -i 89 -a 2 -x {0.0 1.0 -1 ------- null}
r -t 0.716800000000001 -s 0 -d 1 -p cbr -e 1000 -c 2 -i 87 -a 2 -x {0.0 1.0 87 ------- null}
+ -t 0.720000000000001 -s 0 -d 1 -p cbr -e 1000 -c 2 -i 90 -a 2 -x {0.0 1.0 90 ------- null}
- -t 0.720000000000001 -s 0 -d 1 -p cbr -e 1000 -c 2 -i 90 -a 2 -x {0.0 1.0 90 ------- null}