+ 0 0 1 cbr 1000 ------- 2 0.0 1.0 0 0
- 0 0 1 cbr 1000 ------- 2 0.0 1.0 0 0
+ 0.008 0 1 cbr 1000 ------- 2 0.0 1.0 1 1
- 0.008 0 1 cbr 1000 ------- 2 0.0 1.0 1 1
+ 0.016 0 1 cbr 1000 ------- 2 0.0 1.0 2 2
- 0.016 0 1 cbr 1000 ------- 2 0.0 1.0 2 2
r 0.0208 0 1 cbr 1000 ------- 2 0.0 1.0 0 0
+ 0.024 0 1 cbr 1000 ------- 2 0.0 1.0 3 3
- 0.024 0 1 cbr 1000 ------- 2 0.0 1.0 3 3
r 0.0288 0 1 cbr 1000 ------- 2 0.0 1.0 1 1
+ 0.032 0 1 cbr 1000 ------- 2 0.0 1.0 4 4
- 0.032 0 1 cbr 1000 ------- 2 0.0 1.0 4 4
r 0.0368 0 1 cbr 1000 ------- 2 0.0 1.0 2 2
+ 0.04 0 1 cbr 1000 ------- 2 0.0 1.0 5 5
- 0.04 0 1 cbr 1000 ------- 2 0.0 1.0 5 5
r 0.0448 0 1 cbr 1000 ------- 2 0.0 1.0 3 3
+ 0.048 0 1 cbr 1000 ------- 2 0.0 1.0 6 6
- 0.048 0 1 cbr 1000 ------- 2 0.0 1.0 6 6
r 0.0528 0 1 cbr 1000 ------- 2 0.0 1.0 4 4
+ 0.056 0 1 cbr 1000 ------- 2 0.0 1.0 7 7
- 0.056 0 1 cbr 1000 ------- 2 0.0 1.0 7 7
r 0.0608 0 1 cbr 1000 ------- 2 0.0 1.0 5 5
+ 0.064 0 1 cbr 1000 ------- 2 0.0 1.0 8 8
- 0.064 0 1 cbr 1000 ------- 2 0.0 1.0 8 8
r 0.0688 0 1 cbr 1000 ------- 2 0.0 1.0 6 6
+ 0.072 0 1 cbr 1000 ------- 2 0.0 1.0 9 9
- 0.072 0 1 cbr 1000 ------- 2 0.0 1.0 9 9
r 0.0768 0 1 cbr 1000 ------- 2 0.0 1.0 7 7
+ 0.08 0 1 cbr 1000 ------- 2 0.0 1.0 10 10
- 0.08 0 1 cbr 1000 ------- 2 0.0 1.0 10 10
r 0.0848 0 1 cbr 1000 ------- 2 0.0 1.0 8 8
+ 0.088 0 1 cbr 1000 ------- 2 0.0 1.0 11 11
- 0.088 0 1 cbr 1000 ------- 2 0.0 1.0 11 11
r 0.0928 0 1 cbr 1000 ------- 2 0.0 1.0 9 9
+ 0.096 0 1 cbr 1000 ------- 2 0.0 1.0 12 12
- 0.096 0 1 cbr 1000 ------- 2 0.0 1.0 12 12
r 0.1008 0 1 cbr 1000 ------- 2 0.0 1.0 10 10
+ 0.104 0 1 cbr 1000 ------- 2 0.0 1.0 13 13
- 0.104 0 1 cbr 1000 ------- 2 0.0 1.0 13 13
r 0.1088 0 1 cbr 1000 ------- 2 0.0 1.0 11 11
+ 0.112 0 1 cbr 1000 ------- 2 0.0 1.0 14 14
- 0.112 0 1 cbr 1000 ------- 2 0.0 1.0 14 14
r 0.1168 0 1 cbr 1000 ------- 2 0.0 1.0 12 12
+ 0.12 0 1 cbr 1000 ------- 2 0.0 1.0 15 15
- 0.12 0 1 cbr 1000 ------- 2 0.0 1.0 15 15
r 0.1248 0 1 cbr 1000 ------- 2 0.0 1.0 13 13
+ 0.128 0 1 cbr 1000 ------- 2 0.0 1.0 16 16
- 0.128 0 1 cbr 1000 ------- 2 0.0 1.0 16 16
r 0.1328 0 1 cbr 1000 ------- 2 0.0 1.0 14 14
+ 0.136 0 1 cbr 1000 ------- 2 0.0 1.0 17 17
- 0.136 0 1 cbr 1000 ------- 2 0.0 1.0 17 17
r 0.1408 0 1 cbr 1000 ------- 2 0.0 1.0 15 15
+ 0.144 0 1 cbr 1000 ------- 2 0.0 1.0 18 18
- 0.144 0 1 cbr 1000 ------- 2 0.0 1.0 18 18
r 0.1488 0 1 cbr 1000 ------- 2 0.0 1.0 16 16
+ 0.152 0 1 cbr 1000 ------- 2 0.0 1.0 19 19
- 0.152 0 1 cbr 1000 ------- 2 0.0 1.0 19 19
r 0.1568 0 1 cbr 1000 ------- 2 0.0 1.0 17 17
+ 0.16 0 1 cbr 1000 ------- 2 0.0 1.0 20 20
- 0.16 0 1 cbr 1000 ------- 2 0.0 1.0 20 20
r 0.1648 0 1 cbr 1000 ------- 2 0.0 1.0 18 18
+ 0.168 0 1 cbr 1000 ------- 2 0.0 1.0 21 21
- 0.168 0 1 cbr 1000 ------- 2 0.0 1.0 21 21
r 0.1728 0 1 cbr 1000 ------- 2 0.0 1.0 19 19
+ 0.176 0 1 cbr 1000 ------- 2 0.0 1.0 22 22
- 0.176 0 1 cbr 1000 ------- 2 0.0 1.0 22 22
r 0.1808 0 1 cbr 1000 ------- 2 0.0 1.0 20 20
+ 0.184 0 1 cbr 1000 ------- 2 0.0 1.0 23 23
- 0.184 0 1 cbr 1000 ------- 2 0.0 1.0 23 23
r 0.1888 0 1 cbr 1000 ------- 2 0.0 1.0 21 21
+ 0.192 0 1 cbr 1000 ------- 2 0.0 1.0 24 24
- 0.192 0 1 cbr 1000 ------- 2 0.0 1.0 24 24
r 0.1968 0 1 cbr 1000 ------- 2 0.0 1.0 22 22
+ 0.2 0 1 cbr 1000 ------- 2 0.0 1.0 25 25
- 0.2 0 1 cbr 1000 ------- 2 0.0 1.0 25 25
r 0.2048 0 1 cbr 1000 ------- 2 0.0 1.0 23 23
+ 0.208 0 1 cbr 1000 ------- 2 0.0 1.0 26 26
- 0.208 0 1 cbr 1000 ------- 2 0.0 1.0 26 26
r 0.2128 0 1 cbr 1000 ------- 2 0.0 1.0 24 24
+ 0.216 0 1 cbr 1000 ------- 2 0.0 1.0 27 27
- 0.216 0 1 cbr 1000 ------- 2 0.0 1.0 27 27
r 0.2208 0 1 cbr 1000 ------- 2 0.0 1.0 25 25
+ 0.224 0 1 cbr 1000 ------- 2 0.0 1.0 28 28
- 0.224 0 1 cbr 1000 ------- 2 0.0 1.0 28 28
r 0.2288 0 1 cbr 1000 ------- 2 0.0 1.0 26 26
+ 0.232 0 1 cbr 1000 ------- 2 0.0 1.0 29 29
- 0.232 0 1 cbr 1000 ------- 2 0.0 1.0 29 29
r 0.2368 0 1 cbr 1000 ------- 2 0.0 1.0 27 27
+ 0.24 0 1 cbr 1000 ------- 2 0.0 1.0 30 30
- 0.24 0 1 cbr 1000 ------- 2 0.0 1.0 30 30
r 0.2448 0 1 cbr 1000 ------- 2 0.0 1.0 28 28
+ 0.248 0 1 cbr 1000 ------- 2 0.0 1.0 31 31
- 0.248 0 1 cbr 1000 ------- 2 0.0 1.0 31 31
r 0.2528 0 1 cbr 1000 ------- 2 0.0 1.0 29 29
+ 0.256 0 1 cbr 1000 ------- 2 0.0 1.0 32 32
- 0.256 0 1 cbr 1000 ------- 2 0.0 1.0 32 32
r 0.2608 0 1 cbr 1000 ------- 2 0.0 1.0 30 30
+ 0.264 0 1 cbr 1000 ------- 2 0.0 1.0 33 33
- 0.264 0 1 cbr 1000 ------- 2 0.0 1.0 33 33
r 0.2688 0 1 cbr 1000 ------- 2 0.0 1.0 31 31
+ 0.272 0 1 cbr 1000 ------- 2 0.0 1.0 34 34
- 0.272 0 1 cbr 1000 ------- 2 0.0 1.0 34 34
r 0.2768 0 1 cbr 1000 ------- 2 0.0 1.0 32 32
+ 0.28 0 1 cbr 1000 ------- 2 0.0 1.0 35 35
- 0.28 0 1 cbr 1000 ------- 2 0.0 1.0 35 35
r 0.2848 0 1 cbr 1000 ------- 2 0.0 1.0 33 33
+ 0.288 0 1 cbr 1000 ------- 2 0.0 1.0 36 36
- 0.288 0 1 cbr 1000 ------- 2 0.0 1.0 36 36
r 0.2928 0 1 cbr 1000 ------- 2 0.0 1.0 34 34
+ 0.296 0 1 cbr 1000 ------- 2 0.0 1.0 37 37
- 0.296 0 1 cbr 1000 ------- 2 0.0 1.0 37 37
r 0.3008 0 1 cbr 1000 ------- 2 0.0 1.0 35 35
+ 0.304 0 1 cbr 1000 ------- 2 0.0 1.0 38 38
- 0.304 0 1 cbr 1000 ------- 2 0.0 1.0 38 38
r 0.3088 0 1 cbr 1000 ------- 2 0.0 1.0 36 36
+ 0.312 0 1 cbr 1000 ------- 2 0.0 1.0 39 39
- 0.312 0 1 cbr 1000 ------- 2 0.0 1.0 39 39
r 0.3168 0 1 cbr 1000 ------- 2 0.0 1.0 37 37
+ 0.32 0 1 cbr 1000 ------- 2 0.0 1.0 40 40
- 0.32 0 1 cbr 1000 ------- 2 0.0 1.0 40 40
r 0.3248 0 1 cbr 1000 ------- 2 0.0 1.0 38 38
+ 0.328 0 1 cbr 1000 ------- 2 0.0 1.0 41 41
- 0.328 0 1 cbr 1000 ------- 2 0.0 1.0 41 41
r 0.3328 0 1 cbr 1000 ------- 2 0.0 1.0 39 39
+ 0.336 0 1 cbr 1000 ------- 2 0.0 1.0 42 42
- 0.336 0 1 cbr 1000 ------- 2 0.0 1.0 42 42
r 0.3408 0 1 cbr 1000 ------- 2 0.0 1.0 40 40
+ 0.344 0 1 cbr 1000 ------- 2 0.0 1.0 43 43
- 0.344 0 1 cbr 1000 ------- 2 0.0 1.0 43 43
r 0.3488 0 1 cbr 1000 ------- 2 0.0 1.0 41 41
+ 0.352 0 1 cbr 1000 ------- 2 0.0 1.0 44 44
- 0.352 0 1 cbr 1000 ------- 2 0.0 1.0 44 44
r 0.3568 0 1 cbr 1000 ------- 2 0.0 1.0 42 42
+ 0.36 0 1 cbr 1000 ------- 2 0.0 1.0 45 45
- 0.36 0 1 cbr 1000 ------- 2 0.0 1.0 45 45
r 0.3648 0 1 cbr 1000 ------- 2 0.0 1.0 43 43
+ 0.368 0 1 cbr 1000 ------- 2 0.0 1.0 46 46
- 0.368 0 1 cbr 1000 ------- 2 0.0 1.0 46 46
r 0.3728 0 1 cbr 1000 ------- 2 0.0 1.0 44 44
+ 0.376 0 1 cbr 1000 ------- 2 0.0 1.0 47 47
- 0.376 0 1 cbr 1000 ------- 2 0.0 1.0 47 47
r 0.3808 0 1 cbr 1000 ------- 2 0.0 1.0 45 45
+ 0.384 0 1 cbr 1000 ------- 2 0.0 1.0 48 48
- 0.384 0 1 cbr 1000 ------- 2 0.0 1.0 48 48
r 0.3888 0 1 cbr 1000 ------- 2 0.0 1.0 46 46
+ 0.392 0 1 cbr 1000 ------- 2 0.0 1.0 49 49
- 0.392 0 1 cbr 1000 ------- 2 0.0 1.0 49 49
r 0.3968 0 1 cbr 1000 ------- 2 0.0 1.0 47 47
+ 0.4 0 1 cbr 1000 ------- 2 0.0 1.0 50 50
- 0.4 0 1 cbr 1000 ------- 2 0.0 1.0 50 50
r 0.4048 0 1 cbr 1000 ------- 2 0.0 1.0 48 48
+ 0.408 0 1 cbr 1000 ------- 2 0.0 1.0 51 51
- 0.408 0 1 cbr 1000 ------- 2 0.0 1.0 51 51
r 0.4128 0 1 cbr 1000 ------- 2 0.0 1.0 49 49
+ 0.416 0 1 cbr 1000 ------- 2 0.0 1.0 52 52
- 0.416 0 1 cbr 1000 ------- 2 0.0 1.0 52 52
r 0.4208 0 1 cbr 1000 ------- 2 0.0 1.0 50 50
+ 0.424 0 1 cbr 1000 ------- 2 0.0 1.0 53 53
- 0.424 0 1 cbr 1000 ------- 2 0.0 1.0 53 53
r 0.4288 0 1 cbr 1000 ------- 2 0.0 1.0 51 51
+ 0.432 0 1 cbr 1000 ------- 2 0.0 1.0 54 54
- 0.432 0 1 cbr 1000 ------- 2 0.0 1.0 54 54
r 0.4368 0 1 cbr 1000 ------- 2 0.0 1.0 52 52
+ 0.44 0 1 cbr 1000 ------- 2 0.0 1.0 55 55
- 0.44 0 1 cbr 1000 ------- 2 0.0 1.0 55 55
r 0.4448 0 1 cbr 1000 ------- 2 0.0 1.0 53 53
+ 0.448 0 1 cbr 1000 ------- 2 0.0 1.0 56 56
- 0.448 0 1 cbr 1000 ------- 2 0.0 1.0 56 56
r 0.4528 0 1 cbr 1000 ------- 2 0.0 1.0 54 54
+ 0.456 0 1 cbr 1000 ------- 2 0.0 1.0 57 57
- 0.456 0 1 cbr 1000 ------- 2 0.0 1.0 57 57
r 0.4608 0 1 cbr 1000 ------- 2 0.0 1.0 55 55
+ 0.464 0 1 cbr 1000 ------- 2 0.0 1.0 58 58
- 0.464 0 1 cbr 1000 ------- 2 0.0 1.0 58 58
r 0.4688 0 1 cbr 1000 ------- 2 0.0 1.0 56 56
+ 0.472 0 1 cbr 1000 ------- 2 0.0 1.0 59 59
- 0.472 0 1 cbr 1000 ------- 2 0.0 1.0 59 59
r 0.4768 0 1 cbr 1000 ------- 2 0.0 1.0 57 57
+ 0.48 0 1 cbr 1000 ------- 2 0.0 1.0 60 60
- 0.48 0 1 cbr 1000 ------- 2 0.0 1.0 60 60
r 0.4848 0 1 cbr 1000 ------- 2 0.0 1.0 58 58
+ 0.488 0 1 cbr 1000 ------- 2 0.0 1.0 61 61
- 0.488 0 1 cbr 1000 ------- 2 0.0 1.0 61 61
r 0.4928 0 1 cbr 1000 ------- 2 0.0 1.0 59 59
+ 0.496 0 1 cbr 1000 ------- 2 0.0 1.0 62 62
- 0.496 0 1 cbr 1000 ------- 2 0.0 1.0 62 62
r 0.5008 0 1 cbr 1000 ------- 2 0.0 1.0 60 60
+ 0.504 0 1 cbr 1000 ------- 2 0.0 1.0 63 63
- 0.504 0 1 cbr 1000 ------- 2 0.0 1.0 63 63
r 0.5088 0 1 cbr 1000 ------- 2 0.0 1.0 61 61
+ 0.512 0 1 cbr 1000 ------- 2 0.0 1.0 64 64
- 0.512 0 1 cbr 1000 ------- 2 0.0 1.0 64 64
r 0.5168 0 1 cbr 1000 ------- 2 0.0 1.0 62 62
+ 0.52 0 1 cbr 1000 ------- 2 0.0 1.0 65 65
- 0.52 0 1 cbr 1000 ------- 2 0.0 1.0 65 65
r 0.5248 0 1 cbr 1000 ------- 2 0.0 1.0 63 63
+ 0.528 0 1 cbr 1000 ------- 2 0.0 1.0 66 66
- 0.528 0 1 cbr 1000 ------- 2 0.0 1.0 66 66
r 0.5328 0 1 cbr 1000 ------- 2 0.0 1.0 64 64
+ 0.536 0 1 cbr 1000 ------- 2 0.0 1.0 67 67
- 0.536 0 1 cbr 1000 ------- 2 0.0 1.0 67 67
r 0.5408 0 1 cbr 1000 ------- 2 0.0 1.0 65 65
+ 0.544 0 1 cbr 1000 ------- 2 0.0 1.0 68 68
- 0.544 0 1 cbr 1000 ------- 2 0.0 1.0 68 68
r 0.5488 0 1 cbr 1000 ------- 2 0.0 1.0 66 66
+ 0.552 0 1 cbr 1000 ------- 2 0.0 1.0 69 69
- 0.552 0 1 cbr 1000 ------- 2 0.0 1.0 69 69
r 0.5568 0 1 cbr 1000 ------- 2 0.0 1.0 67 67
+ 0.56 0 1 cbr 1000 ------- 2 0.0 1.0 70 70
- 0.56 0 1 cbr 1000 ------- 2 0.0 1.0 70 70
r 0.5648 0 1 cbr 1000 ------- 2 0.0 1.0 68 68
+ 0.568 0 1 cbr 1000 ------- 2 0.0 1.0 71 71
- 0.568 0 1 cbr 1000 ------- 2 0.0 1.0 71 71
r 0.5728 0 1 cbr 1000 ------- 2 0.0 1.0 69 69
+ 0.576 0 1 cbr 1000 ------- 2 0.0 1.0 72 72
- 0.576 0 1 cbr 1000 ------- 2 0.0 1.0 72 72
r 0.5808 0 1 cbr 1000 ------- 2 0.0 1.0 70 70
+ 0.584 0 1 cbr 1000 ------- 2 0.0 1.0 73 73
- 0.584 0 1 cbr 1000 ------- 2 0.0 1.0 73 73
r 0.5888 0 1 cbr 1000 ------- 2 0.0 1.0 71 71
+ 0.592 0 1 cbr 1000 ------- 2 0.0 1.0 74 74
- 0.592 0 1 cbr 1000 ------- 2 0.0 1.0 74 74
r 0.5968 0 1 cbr 1000 ------- 2 0.0 1.0 72 72
+ 0.6 0 1 cbr 1000 ------- 2 0.0 1.0 75 75
- 0.6 0 1 cbr 1000 ------- 2 0.0 1.0 75 75
r 0.6048 0 1 cbr 1000 ------- 2 0.0 1.0 73 73
+ 0.608 0 1 cbr 1000 ------- 2 0.0 1.0 76 76
- 0.608 0 1 cbr 1000 ------- 2 0.0 1.0 76 76
r 0.6128 0 1 cbr 1000 ------- 2 0.0 1.0 74 74
+ 0.616 0 1 cbr 1000 ------- 2 0.0 1.0 77 77
- 0.616 0 1 cbr 1000 ------- 2 0.0 1.0 77 77
r 0.6208 0 1 cbr 1000 ------- 2 0.0 1.0 75 75
+ 0.624 0 1 cbr 1000 ------- 2 0.0 1.0 78 78
- 0.624 0 1 cbr 1000 ------- 2 0.0 1.0 78 78
r 0.6288 0 1 cbr 1000 ------- 2 0.0 1.0 76 76
+ 0.632 0 1 cbr 1000 ------- 2 0.0 1.0 79 79
- 0.632 0 1 cbr 1000 ------- 2 0.0 1.0 79 79
r 0.6368 0 1 cbr 1000 ------- 2 0.0 1.0 77 77
+ 0.64 0 1 cbr 1000 ------- 2 0.0 1.0 80 80
- 0.64 0 1 cbr 1000 ------- 2 0.0 1.0 80 80
r 0.6448 0 1 cbr 1000 ------- 2 0.0 1.0 78 78
+ 0.648 0 1 cbr 1000 ------- 2 0.0 1.0 81 81
- 0.648 0 1 cbr 1000 ------- 2 0.0 1.0 81 81
r 0.6528 0 1 cbr 1000 ------- 2 0.0 1.0 79 79
+ 0.656 0 1 cbr 1000 ------- 2 0.0 1.0 82 82
- 0.656 0 1 cbr 1000 ------- 2 0.0 1.0 82 82
r 0.6608 0 1 cbr 1000 ------- 2 0.0 1.0 80 80
+ 0.664 0 1 cbr 1000 ------- 2 0.0 1.0 83 83
- 0.664 0 1 cbr 1000 ------- 2 0.0 1.0 83 83
r 0.6688 0 1 cbr 1000 ------- 2 0.0 1.0 81 81
+ 0.672 0 1 cbr 1000 ------- 2 0.0 1.0 84 84
- 0.672 0 1 cbr 1000 ------- 2 0.0 1.0 84 84
r 0.6768 0 1 cbr 1000 ------- 2 0.0 1.0 82 82
+ 0.68 0 1 cbr 1000 ------- 2 0.0 1.0 85 85
- 0.68 0 1 cbr 1000 ------- 2 0.0 1.0 85 85
r 0.6848 0 1 cbr 1000 ------- 2 0.0 1.0 83 83
+ 0.688 0 1 cbr 1000 ------- 2 0.0 1.0 86 86
- 0.688 0 1 cbr 1000 ------- 2 0.0 1.0 86 86
r 0.6928 0 1 cbr 1000 ------- 2 0.0 1.0 84 84
+ 0.696 0 1 cbr 1000 ------- 2 0.0 1.0 87 87
- 0.696 0 1 cbr 1000 ------- 2 0.0 1.0 87 87
r 0.7008 0 1 cbr 1000 ------- 2 0.0 1.0 85 85
+ 0.704 0 1 cbr 1000 ------- 2 0.0 1.0 88 88
- 0.704 0 1 cbr 1000 ------- 2 0.0 1.0 88 88
r 0.7088 0 1 cbr 1000 ------- 2 0.0 1.0 86 86
+ 0.712 0 1 cbr 1000 ------- 2 0.0 1.0 89 89
- 0.712 0 1 cbr 1000 ------- 2 0.0 1.0 89 89
r 0.7168 0 1 cbr 1000 ------- 2 0.0 1.0 87 87
+ 0.72 0 1 cbr 1000 ------- 2 0.0 1.0 90 90
- 0.72 0 1 cbr 1000 ------- 2 0.0 1.0 90 90
r 0.7248 0 1 cbr 1000 ------- 2 0.0 1.0 88 88
+ 0.728 0 1 cbr 1000 ------- 2 0.0 1.0 91 91
- 0.728 0 1 cbr 1000 ------- 2 0.0 1.0 91 91
r 0.7328 0 1 cbr 1000 ------- 2 0.0 1.0 89 89
+ 0.736 0 1 cbr 1000 ------- 2 0.0 1.0 92 92
- 0.736 0 1 cbr 1000 ------- 2 0.0 1.0 92 92
r 0.7408 0 1 cbr 1000 ------- 2 0.0 1.0 90 90
+ 0.744 0 1 cbr 1000 ------- 2 0.0 1.0 93 93
- 0.744 0 1 cbr 1000 ------- 2 0.0 1.0 93 93
r 0.7488 0 1 cbr 1000 ------- 2 0.0 1.0 91 91
+ 0.752 0 1 cbr 1000 ------- 2 0.0 1.0 94 94
- 0.752 0 1 cbr 1000 ------- 2 0.0 1.0 94 94
r 0.7568 0 1 cbr 1000 ------- 2 0.0 1.0 92 92
+ 0.76 0 1 cbr 1000 ------- 2 0.0 1.0 95 95
- 0.76 0 1 cbr 1000 ------- 2 0.0 1.0 95 95
r 0.7648 0 1 cbr 1000 ------- 2 0.0 1.0 93 93
+ 0.768 0 1 cbr 1000 ------- 2 0.0 1.0 96 96
- 0.768 0 1 cbr 1000 ------- 2 0.0 1.0 96 96
r 0.7728 0 1 cbr 1000 ------- 2 0.0 1.0 94 94
+ 0.776 0 1 cbr 1000 ------- 2 0.0 1.0 97 97
- 0.776 0 1 cbr 1000 ------- 2 0.0 1.0 97 97
r 0.7808 0 1 cbr 1000 ------- 2 0.0 1.0 95 95
+ 0.784 0 1 cbr 1000 ------- 2 0.0 1.0 98 98
- 0.784 0 1 cbr 1000 ------- 2 0.0 1.0 98 98
r 0.7888 0 1 cbr 1000 ------- 2 0.0 1.0 96 96
+ 0.792 0 1 cbr 1000 ------- 2 0.0 1.0 99 99
- 0.792 0 1 cbr 1000 ------- 2 0.0 1.0 99 99
r 0.7968 0 1 cbr 1000 ------- 2 0.0 1.0 97 97
+ 0.8 0 1 cbr 1000 ------- 2 0.0 1.0 100 100
- 0.8 0 1 cbr 1000 ------- 2 0.0 1.0 100 100
r 0.8048 0 1 cbr 1000 ------- 2 0.0 1.0 98 98
+ 0.808 0 1 cbr 1000 ------- 2 0.0 1.0 101 101
- 0.808 0 1 cbr 1000 ------- 2 0.0 1.0 101 101
r 0.8128 0 1 cbr 1000 ------- 2 0.0 1.0 99 99
+ 0.816 0 1 cbr 1000 ------- 2 0.0 1.0 102 102
- 0.816 0 1 cbr 1000 ------- 2 0.0 1.0 102 102
r 0.8208 0 1 cbr 1000 ------- 2 0.0 1.0 100 100
+ 0.824 0 1 cbr 1000 ------- 2 0.0 1.0 103 103
- 0.824 0 1 cbr 1000 ------- 2 0.0 1.0 103 103
r 0.8288 0 1 cbr 1000 ------- 2 0.0 1.0 101 101
+ 0.832 0 1 cbr 1000 ------- 2 0.0 1.0 104 104
- 0.832 0 1 cbr 1000 ------- 2 0.0 1.0 104 104
r 0.8368 0 1 cbr 1000 ------- 2 0.0 1.0 102 102
+ 0.84 0 1 cbr 1000 ------- 2 0.0 1.0 105 105
- 0.84 0 1 cbr 1000 ------- 2 0.0 1.0 105 105
r 0.8448 0 1 cbr 1000 ------- 2 0.0 1.0 103 103
+ 0.848 0 1 cbr 1000 ------- 2 0.0 1.0 106 106
- 0.848 0 1 cbr 1000 ------- 2 0.0 1.0 106 106
r 0.8528 0 1 cbr 1000 ------- 2 0.0 1.0 104 104
+ 0.856 0 1 cbr 1000 ------- 2 0.0 1.0 107 107
- 0.856 0 1 cbr 1000 ------- 2 0.0 1.0 107 107
r 0.8608 0 1 cbr 1000 ------- 2 0.0 1.0 105 105
+ 0.864 0 1 cbr 1000 ------- 2 0.0 1.0 108 108
- 0.864 0 1 cbr 1000 ------- 2 0.0 1.0 108 108
r 0.8688 0 1 cbr 1000 ------- 2 0.0 1.0 106 106
+ 0.872 0 1 cbr 1000 ------- 2 0.0 1.0 109 109
- 0.872 0 1 cbr 1000 ------- 2 0.0 1.0 109 109
r 0.8768 0 1 cbr 1000 ------- 2 0.0 1.0 107 107
+ 0.88 0 1 cbr 1000 ------- 2 0.0 1.0 110 110
- 0.88 0 1 cbr 1000 ------- 2 0.0 1.0 110 110
r 0.8848 0 1 cbr 1000 ------- 2 0.0 1.0 108 108
+ 0.888 0 1 cbr 1000 ------- 2 0.0 1.0 111 111
- 0.888 0 1 cbr 1000 ------- 2 0.0 1.0 111 111
r 0.8928 0 1 cbr 1000 ------- 2 0.0 1.0 109 109
+ 0.896 0 1 cbr 1000 ------- 2 0.0 1.0 112 112
- 0.896 0 1 cbr 1000 ------- 2 0.0 1.0 112 112
r 0.9008 0 1 cbr 1000 ------- 2 0.0 1.0 110 110
+ 0.904 0 1 cbr 1000 ------- 2 0.0 1.0 113 113
- 0.904 0 1 cbr 1000 ------- 2 0.0 1.0 113 113
r 0.9088 0 1 cbr 1000 ------- 2 0.0 1.0 111 111
+ 0.912 0 1 cbr 1000 ------- 2 0.0 1.0 114 114
- 0.912 0 1 cbr 1000 ------- 2 0.0 1.0 114 114
r 0.9168 0 1 cbr 1000 ------- 2 0.0 1.0 112 112
+ 0.92 0 1 cbr 1000 ------- 2 0.0 1.0 115 115
- 0.92 0 1 cbr 1000 ------- 2 0.0 1.0 115 115
r 0.9248 0 1 cbr 1000 ------- 2 0.0 1.0 113 113
+ 0.928 0 1 cbr 1000 ------- 2 0.0 1.0 116 116
- 0.928 0 1 cbr 1000 ------- 2 0.0 1.0 116 116
r 0.9328 0 1 cbr 1000 ------- 2 0.0 1.0 114 114
+ 0.936 0 1 cbr 1000 ------- 2 0.0 1.0 117 117
- 0.936 0 1 cbr 1000 ------- 2 0.0 1.0 117 117
r 0.9408 0 1 cbr 1000 ------- 2 0.0 1.0 115 115
+ 0.944 0 1 cbr 1000 ------- 2 0.0 1.0 118 118
- 0.944 0 1 cbr 1000 ------- 2 0.0 1.0 118 118
r 0.9488 0 1 cbr 1000 ------- 2 0.0 1.0 116 116
+ 0.952 0 1 cbr 1000 ------- 2 0.0 1.0 119 119
- 0.952 0 1 cbr 1000 ------- 2 0.0 1.0 119 119
r 0.9568 0 1 cbr 1000 ------- 2 0.0 1.0 117 117
+ 0.96 0 1 cbr 1000 ------- 2 0.0 1.0 120 120
- 0.96 0 1 cbr 1000 ------- 2 0.0 1.0 120 120
r 0.9648 0 1 cbr 1000 ------- 2 0.0 1.0 118 118
+ 0.968 0 1 cbr 1000 ------- 2 0.0 1.0 121 121
- 0.968 0 1 cbr 1000 ------- 2 0.0 1.0 121 121
r 0.9728 0 1 cbr 1000 ------- 2 0.0 1.0 119 119
+ 0.976 0 1 cbr 1000 ------- 2 0.0 1.0 122 122
- 0.976 0 1 cbr 1000 ------- 2 0.0 1.0 122 122
r 0.9808 0 1 cbr 1000 ------- 2 0.0 1.0 120 120
+ 0.984 0 1 cbr 1000 ------- 2 0.0 1.0 123 123
- 0.984 0 1 cbr 1000 ------- 2 0.0 1.0 123 123
r 0.9888 0 1 cbr 1000 ------- 2 0.0 1.0 121 121
+ 0.992 0 1 cbr 1000 ------- 2 0.0 1.0 124 124
- 0.992 0 1 cbr 1000 ------- 2 0.0 1.0 124 124
r 0.9968 0 1 cbr 1000 ------- 2 0.0 1.0 122 122
+ 1 0 2 cbr 1000 ------- 0 0.1 2.0 0 125
- 1 0 2 cbr 1000 ------- 0 0.1 2.0 0 125
+ 1 1 3 cbr 1000 ------- 0 1.1 3.0 0 126
- 1 1 3 cbr 1000 ------- 0 1.1 3.0 0 126
r 1.0048 0 1 cbr 1000 ------- 2 0.0 1.0 123 123
+ 1.008 0 2 cbr 1000 ------- 0 0.1 2.0 1 127
- 1.008 0 2 cbr 1000 ------- 0 0.1 2.0 1 127
+ 1.008 1 3 cbr 1000 ------- 0 1.1 3.0 1 128
- 1.008 1 3 cbr 1000 ------- 0 1.1 3.0 1 128
r 1.0128 0 1 cbr 1000 ------- 2 0.0 1.0 124 124
+ 1.016 0 2 cbr 1000 ------- 0 0.1 2.0 2 129
- 1.016 0 2 cbr 1000 ------- 0 0.1 2.0 2 129
+ 1.016 1 3 cbr 1000 ------- 0 1.1 3.0 2 130
- 1.016 1 3 cbr 1000 ------- 0 1.1 3.0 2 130
r 1.0208 0 2 cbr 1000 ------- 0 0.1 2.0 0 125
r 1.0208 1 3 cbr 1000 ------- 0 1.1 3.0 0 126
+ 1.024 0 2 cbr 1000 ------- 0 0.1 2.0 3 131
- 1.024 0 2 cbr 1000 ------- 0 0.1 2.0 3 131
+ 1.024 1 3 cbr 1000 ------- 0 1.1 3.0 3 132
- 1.024 1 3 cbr 1000 ------- 0 1.1 3.0 3 132
r 1.0288 0 2 cbr 1000 ------- 0 0.1 2.0 1 127
r 1.0288 1 3 cbr 1000 ------- 0 1.1 3.0 1 128
+ 1.032 0 2 cbr 1000 ------- 0 0.1 2.0 4 133
- 1.032 0 2 cbr 1000 ------- 0 0.1 2.0 4 133
+ 1.032 1 3 cbr 1000 ------- 0 1.1 3.0 4 134
- 1.032 1 3 cbr 1000 ------- 0 1.1 3.0 4 134
r 1.0368 0 2 cbr 1000 ------- 0 0.1 2.0 2 129
r 1.0368 1 3 cbr 1000 ------- 0 1.1 3.0 2 130
+ 1.04 0 2 cbr 1000 ------- 0 0.1 2.0 5 135
- 1.04 0 2 cbr 1000 ------- 0 0.1 2.0 5 135
+ 1.04 1 3 cbr 1000 ------- 0 1.1 3.0 5 136
- 1.04 1 3 cbr 1000 ------- 0 1.1 3.0 5 136
r 1.0448 0 2 cbr 1000 ------- 0 0.1 2.0 3 131
r 1.0448 1 3 cbr 1000 ------- 0 1.1 3.0 3 132
+ 1.048 0 2 cbr 1000 ------- 0 0.1 2.0 6 137
- 1.048 0 2 cbr 1000 ------- 0 0.1 2.0 6 137
+ 1.048 1 3 cbr 1000 ------- 0 1.1 3.0 6 138
- 1.048 1 3 cbr 1000 ------- 0 1.1 3.0 6 138
r 1.0528 0 2 cbr 1000 ------- 0 0.1 2.0 4 133
r 1.0528 1 3 cbr 1000 ------- 0 1.1 3.0 4 134
+ 1.056 0 2 cbr 1000 ------- 0 0.1 2.0 7 139
- 1.056 0 2 cbr 1000 ------- 0 0.1 2.0 7 139
+ 1.056 1 3 cbr 1000 ------- 0 1.1 3.0 7 140
- 1.056 1 3 cbr 1000 ------- 0 1.1 3.0 7 140
r 1.0608 0 2 cbr 1000 ------- 0 0.1 2.0 5 135
r 1.0608 1 3 cbr 1000 ------- 0 1.1 3.0 5 136
+ 1.064 0 2 cbr 1000 ------- 0 0.1 2.0 8 141
- 1.064 0 2 cbr 1000 ------- 0 0.1 2.0 8 141
+ 1.064 1 3 cbr 1000 ------- 0 1.1 3.0 8 142
- 1.064 1 3 cbr 1000 ------- 0 1.1 3.0 8 142
r 1.0688 0 2 cbr 1000 ------- 0 0.1 2.0 6 137
r 1.0688 1 3 cbr 1000 ------- 0 1.1 3.0 6 138
+ 1.072 0 2 cbr 1000 ------- 0 0.1 2.0 9 143
- 1.072 0 2 cbr 1000 ------- 0 0.1 2.0 9 143
+ 1.072 1 3 cbr 1000 ------- 0 1.1 3.0 9 144
- 1.072 1 3 cbr 1000 ------- 0 1.1 3.0 9 144
r 1.0768 0 2 cbr 1000 ------- 0 0.1 2.0 7 139
r 1.0768 1 3 cbr 1000 ------- 0 1.1 3.0 7 140
+ 1.08 0 2 cbr 1000 ------- 0 0.1 2.0 10 145
- 1.08 0 2 cbr 1000 ------- 0 0.1 2.0 10 145
+ 1.08 1 3 cbr 1000 ------- 0 1.1 3.0 10 146
- 1.08 1 3 cbr 1000 ------- 0 1.1 3.0 10 146
r 1.0848 0 2 cbr 1000 ------- 0 0.1 2.0 8 141
r 1.0848 1 3 cbr 1000 ------- 0 1.1 3.0 8 142
+ 1.088 0 2 cbr 1000 ------- 0 0.1 2.0 11 147
- 1.088 0 2 cbr 1000 ------- 0 0.1 2.0 11 147
+ 1.088 1 3 cbr 1000 ------- 0 1.1 3.0 11 148
- 1.088 1 3 cbr 1000 ------- 0 1.1 3.0 11 148
r 1.0928 0 2 cbr 1000 ------- 0 0.1 2.0 9 143
r 1.0928 1 3 cbr 1000 ------- 0 1.1 3.0 9 144
+ 1.096 0 2 cbr 1000 ------- 0 0.1 2.0 12 149
- 1.096 0 2 cbr 1000 ------- 0 0.1 2.0 12 149
+ 1.096 1 3 cbr 1000 ------- 0 1.1 3.0 12 150
- 1.096 1 3 cbr 1000 ------- 0 1.1 3.0 12 150
r 1.1008 0 2 cbr 1000 ------- 0 0.1 2.0 10 145
r 1.1008 1 3 cbr 1000 ------- 0 1.1 3.0 10 146
+ 1.104 0 2 cbr 1000 ------- 0 0.1 2.0 13 151
- 1.104 0 2 cbr 1000 ------- 0 0.1 2.0 13 151
+ 1.104 1 3 cbr 1000 ------- 0 1.1 3.0 13 152
- 1.104 1 3 cbr 1000 ------- 0 1.1 3.0 13 152
r 1.1088 0 2 cbr 1000 ------- 0 0.1 2.0 11 147
r 1.1088 1 3 cbr 1000 ------- 0 1.1 3.0 11 148
+ 1.112 0 2 cbr 1000 ------- 0 0.1 2.0 14 153
- 1.112 0 2 cbr 1000 ------- 0 0.1 2.0 14 153
+ 1.112 1 3 cbr 1000 ------- 0 1.1 3.0 14 154
- 1.112 1 3 cbr 1000 ------- 0 1.1 3.0 14 154
r 1.1168 0 2 cbr 1000 ------- 0 0.1 2.0 12 149
r 1.1168 1 3 cbr 1000 ------- 0 1.1 3.0 12 150
+ 1.12 0 2 cbr 1000 ------- 0 0.1 2.0 15 155
- 1.12 0 2 cbr 1000 ------- 0 0.1 2.0 15 155
+ 1.12 1 3 cbr 1000 ------- 0 1.1 3.0 15 156
- 1.12 1 3 cbr 1000 ------- 0 1.1 3.0 15 156
r 1.1248 0 2 cbr 1000 ------- 0 0.1 2.0 13 151
r 1.1248 1 3 cbr 1000 ------- 0 1.1 3.0 13 152
+ 1.128 0 2 cbr 1000 ------- 0 0.1 2.0 16 157
- 1.128 0 2 cbr 1000 ------- 0 0.1 2.0 16 157
+ 1.128 1 3 cbr 1000 ------- 0 1.1 3.0 16 158
- 1.128 1 3 cbr 1000 ------- 0 1.1 3.0 16 158
r 1.1328 0 2 cbr 1000 ------- 0 0.1 2.0 14 153
r 1.1328 1 3 cbr 1000 ------- 0 1.1 3.0 14 154
+ 1.136 0 2 cbr 1000 ------- 0 0.1 2.0 17 159
- 1.136 0 2 cbr 1000 ------- 0 0.1 2.0 17 159
+ 1.136 1 3 cbr 1000 ------- 0 1.1 3.0 17 160
- 1.136 1 3 cbr 1000 ------- 0 1.1 3.0 17 160
r 1.1408 0 2 cbr 1000 ------- 0 0.1 2.0 15 155
r 1.1408 1 3 cbr 1000 ------- 0 1.1 3.0 15 156
+ 1.144 0 2 cbr 1000 ------- 0 0.1 2.0 18 161
- 1.144 0 2 cbr 1000 ------- 0 0.1 2.0 18 161
+ 1.144 1 3 cbr 1000 ------- 0 1.1 3.0 18 162
- 1.144 1 3 cbr 1000 ------- 0 1.1 3.0 18 162
r 1.1488 0 2 cbr 1000 ------- 0 0.1 2.0 16 157
r 1.1488 1 3 cbr 1000 ------- 0 1.1 3.0 16 158
+ 1.152 0 2 cbr 1000 ------- 0 0.1 2.0 19 163
- 1.152 0 2 cbr 1000 ------- 0 0.1 2.0 19 163
+ 1.152 1 3 cbr 1000 ------- 0 1.1 3.0 19 164
- 1.152 1 3 cbr 1000 ------- 0 1.1 3.0 19 164
r 1.1568 0 2 cbr 1000 ------- 0 0.1 2.0 17 159
r 1.1568 1 3 cbr 1000 ------- 0 1.1 3.0 17 160
+ 1.16 0 2 cbr 1000 ------- 0 0.1 2.0 20 165
- 1.16 0 2 cbr 1000 ------- 0 0.1 2.0 20 165
+ 1.16 1 3 cbr 1000 ------- 0 1.1 3.0 20 166
- 1.16 1 3 cbr 1000 ------- 0 1.1 3.0 20 166
r 1.1648 0 2 cbr 1000 ------- 0 0.1 2.0 18 161
r 1.1648 1 3 cbr 1000 ------- 0 1.1 3.0 18 162
+ 1.168 0 2 cbr 1000 ------- 0 0.1 2.0 21 167
- 1.168 0 2 cbr 1000 ------- 0 0.1 2.0 21 167
+ 1.168 1 3 cbr 1000 ------- 0 1.1 3.0 21 168
- 1.168 1 3 cbr 1000 ------- 0 1.1 3.0 21 168
r 1.1728 0 2 cbr 1000 ------- 0 0.1 2.0 19 163
r 1.1728 1 3 cbr 1000 ------- 0 1.1 3.0 19 164
+ 1.176 0 2 cbr 1000 ------- 0 0.1 2.0 22 169
- 1.176 0 2 cbr 1000 ------- 0 0.1 2.0 22 169
+ 1.176 1 3 cbr 1000 ------- 0 1.1 3.0 22 170
- 1.176 1 3 cbr 1000 ------- 0 1.1 3.0 22 170
r 1.1808 0 2 cbr 1000 ------- 0 0.1 2.0 20 165
r 1.1808 1 3 cbr 1000 ------- 0 1.1 3.0 20 166
+ 1.184 0 2 cbr 1000 ------- 0 0.1 2.0 23 171
- 1.184 0 2 cbr 1000 ------- 0 0.1 2.0 23 171
+ 1.184 1 3 cbr 1000 ------- 0 1.1 3.0 23 172
- 1.184 1 3 cbr 1000 ------- 0 1.1 3.0 23 172
r 1.1888 0 2 cbr 1000 ------- 0 0.1 2.0 21 167
r 1.1888 1 3 cbr 1000 ------- 0 1.1 3.0 21 168
+ 1.192 0 2 cbr 1000 ------- 0 0.1 2.0 24 173
- 1.192 0 2 cbr 1000 ------- 0 0.1 2.0 24 173
+ 1.192 1 3 cbr 1000 ------- 0 1.1 3.0 24 174
- 1.192 1 3 cbr 1000 ------- 0 1.1 3.0 24 174
r 1.1968 0 2 cbr 1000 ------- 0 0.1 2.0 22 169
r 1.1968 1 3 cbr 1000 ------- 0 1.1 3.0 22 170
+ 1.2 0 2 cbr 1000 ------- 0 0.1 2.0 25 175
- 1.2 0 2 cbr 1000 ------- 0 0.1 2.0 25 175
+ 1.2 1 3 cbr 1000 ------- 0 1.1 3.0 25 176
- 1.2 1 3 cbr 1000 ------- 0 1.1 3.0 25 176
r 1.2048 0 2 cbr 1000 ------- 0 0.1 2.0 23 171
r 1.2048 1 3 cbr 1000 ------- 0 1.1 3.0 23 172
+ 1.208 0 2 cbr 1000 ------- 0 0.1 2.0 26 177
- 1.208 0 2 cbr 1000 ------- 0 0.1 2.0 26 177
+ 1.208 1 3 cbr 1000 ------- 0 1.1 3.0 26 178
- 1.208 1 3 cbr 1000 ------- 0 1.1 3.0 26 178
r 1.2128 0 2 cbr 1000 ------- 0 0.1 2.0 24 173
r 1.2128 1 3 cbr 1000 ------- 0 1.1 3.0 24 174
+ 1.216 0 2 cbr 1000 ------- 0 0.1 2.0 27 179
- 1.216 0 2 cbr 1000 ------- 0 0.1 2.0 27 179
+ 1.216 1 3 cbr 1000 ------- 0 1.1 3.0 27 180
- 1.216 1 3 cbr 1000 ------- 0 1.1 3.0 27 180
r 1.2208 0 2 cbr 1000 ------- 0 0.1 2.0 25 175
r 1.2208 1 3 cbr 1000 ------- 0 1.1 3.0 25 176
+ 1.224 0 2 cbr 1000 ------- 0 0.1 2.0 28 181
- 1.224 0 2 cbr 1000 ------- 0 0.1 2.0 28 181
+ 1.224 1 3 cbr 1000 ------- 0 1.1 3.0 28 182
- 1.224 1 3 cbr 1000 ------- 0 1.1 3.0 28 182
r 1.2288 0 2 cbr 1000 ------- 0 0.1 2.0 26 177
r 1.2288 1 3 cbr 1000 ------- 0 1.1 3.0 26 178
+ 1.232 0 2 cbr 1000 ------- 0 0.1 2.0 29 183
- 1.232 0 2 cbr 1000 ------- 0 0.1 2.0 29 183
+ 1.232 1 3 cbr 1000 ------- 0 1.1 3.0 29 184
- 1.232 1 3 cbr 1000 ------- 0 1.1 3.0 29 184
r 1.2368 0 2 cbr 1000 ------- 0 0.1 2.0 27 179
r 1.2368 1 3 cbr 1000 ------- 0 1.1 3.0 27 180
+ 1.24 0 2 cbr 1000 ------- 0 0.1 2.0 30 185
- 1.24 0 2 cbr 1000 ------- 0 0.1 2.0 30 185
+ 1.24 1 3 cbr 1000 ------- 0 1.1 3.0 30 186
- 1.24 1 3 cbr 1000 ------- 0 1.1 3.0 30 186
r 1.2448 0 2 cbr 1000 ------- 0 0.1 2.0 28 181
r 1.2448 1 3 cbr 1000 ------- 0 1.1 3.0 28 182
+ 1.248 0 2 cbr 1000 ------- 0 0.1 2.0 31 187
- 1.248 0 2 cbr 1000 ------- 0 0.1 2.0 31 187
+ 1.248 1 3 cbr 1000 ------- 0 1.1 3.0 31 188
- 1.248 1 3 cbr 1000 ------- 0 1.1 3.0 31 188
r 1.2528 0 2 cbr 1000 ------- 0 0.1 2.0 29 183
r 1.2528 1 3 cbr 1000 ------- 0 1.1 3.0 29 184
+ 1.256 0 2 cbr 1000 ------- 0 0.1 2.0 32 189
- 1.256 0 2 cbr 1000 ------- 0 0.1 2.0 32 189
+ 1.256 1 3 cbr 1000 ------- 0 1.1 3.0 32 190
- 1.256 1 3 cbr 1000 ------- 0 1.1 3.0 32 190
r 1.2608 0 2 cbr 1000 ------- 0 0.1 2.0 30 185
r 1.2608 1 3 cbr 1000 ------- 0 1.1 3.0 30 186
+ 1.264 0 2 cbr 1000 ------- 0 0.1 2.0 33 191
- 1.264 0 2 cbr 1000 ------- 0 0.1 2.0 33 191
+ 1.264 1 3 cbr 1000 ------- 0 1.1 3.0 33 192
- 1.264 1 3 cbr 1000 ------- 0 1.1 3.0 33 192
r 1.2688 0 2 cbr 1000 ------- 0 0.1 2.0 31 187
r 1.2688 1 3 cbr 1000 ------- 0 1.1 3.0 31 188
+ 1.272 0 2 cbr 1000 ------- 0 0.1 2.0 34 193
- 1.272 0 2 cbr 1000 ------- 0 0.1 2.0 34 193
+ 1.272 1 3 cbr 1000 ------- 0 1.1 3.0 34 194
- 1.272 1 3 cbr 1000 ------- 0 1.1 3.0 34 194
r 1.2768 0 2 cbr 1000 ------- 0 0.1 2.0 32 189
r 1.2768 1 3 cbr 1000 ------- 0 1.1 3.0 32 190
+ 1.28 0 2 cbr 1000 ------- 0 0.1 2.0 35 195
- 1.28 0 2 cbr 1000 ------- 0 0.1 2.0 35 195
+ 1.28 1 3 cbr 1000 ------- 0 1.1 3.0 35 196
- 1.28 1 3 cbr 1000 ------- 0 1.1 3.0 35 196
r 1.2848 0 2 cbr 1000 ------- 0 0.1 2.0 33 191
r 1.2848 1 3 cbr 1000 ------- 0 1.1 3.0 33 192
+ 1.288 0 2 cbr 1000 ------- 0 0.1 2.0 36 197
- 1.288 0 2 cbr 1000 ------- 0 0.1 2.0 36 197
+ 1.288 1 3 cbr 1000 ------- 0 1.1 3.0 36 198
- 1.288 1 3 cbr 1000 ------- 0 1.1 3.0 36 198
r 1.2928 0 2 cbr 1000 ------- 0 0.1 2.0 34 193
r 1.2928 1 3 cbr 1000 ------- 0 1.1 3.0 34 194
+ 1.296 0 2 cbr 1000 ------- 0 0.1 2.0 37 199
- 1.296 0 2 cbr 1000 ------- 0 0.1 2.0 37 199
+ 1.296 1 3 cbr 1000 ------- 0 1.1 3.0 37 200
- 1.296 1 3 cbr 1000 ------- 0 1.1 3.0 37 200
r 1.3008 0 2 cbr 1000 ------- 0 0.1 2.0 35 195
r 1.3008 1 3 cbr 1000 ------- 0 1.1 3.0 35 196
+ 1.304 0 2 cbr 1000 ------- 0 0.1 2.0 38 201
- 1.304 0 2 cbr 1000 ------- 0 0.1 2.0 38 201
+ 1.304 1 3 cbr 1000 ------- 0 1.1 3.0 38 202
- 1.304 1 3 cbr 1000 ------- 0 1.1 3.0 38 202
r 1.3088 0 2 cbr 1000 ------- 0 0.1 2.0 36 197
r 1.3088 1 3 cbr 1000 ------- 0 1.1 3.0 36 198
+ 1.312 0 2 cbr 1000 ------- 0 0.1 2.0 39 203
- 1.312 0 2 cbr 1000 ------- 0 0.1 2.0 39 203
+ 1.312 1 3 cbr 1000 ------- 0 1.1 3.0 39 204
- 1.312 1 3 cbr 1000 ------- 0 1.1 3.0 39 204
r 1.3168 0 2 cbr 1000 ------- 0 0.1 2.0 37 199
r 1.3168 1 3 cbr 1000 ------- 0 1.1 3.0 37 200
+ 1.32 0 2 cbr 1000 ------- 0 0.1 2.0 40 205
- 1.32 0 2 cbr 1000 ------- 0 0.1 2.0 40 205
+ 1.32 1 3 cbr 1000 ------- 0 1.1 3.0 40 206
- 1.32 1 3 cbr 1000 ------- 0 1.1 3.0 40 206
r 1.3248 0 2 cbr 1000 ------- 0 0.1 2.0 38 201
r 1.3248 1 3 cbr 1000 ------- 0 1.1 3.0 38 202
+ 1.328 0 2 cbr 1000 ------- 0 0.1 2.0 41 207
- 1.328 0 2 cbr 1000 ------- 0 0.1 2.0 41 207
+ 1.328 1 3 cbr 1000 ------- 0 1.1 3.0 41 208
- 1.328 1 3 cbr 1000 ------- 0 1.1 3.0 41 208
r 1.3328 0 2 cbr 1000 ------- 0 0.1 2.0 39 203
r 1.3328 1 3 cbr 1000 ------- 0 1.1 3.0 39 204
+ 1.336 0 2 cbr 1000 ------- 0 0.1 2.0 42 209
- 1.336 0 2 cbr 1000 ------- 0 0.1 2.0 42 209
+ 1.336 1 3 cbr 1000 ------- 0 1.1 3.0 42 210
- 1.336 1 3 cbr 1000 ------- 0 1.1 3.0 42 210
r 1.3408 0 2 cbr 1000 ------- 0 0.1 2.0 40 205
r 1.3408 1 3 cbr 1000 ------- 0 1.1 3.0 40 206
+ 1.344 0 2 cbr 1000 ------- 0 0.1 2.0 43 211
- 1.344 0 2 cbr 1000 ------- 0 0.1 2.0 43 211
+ 1.344 1 3 cbr 1000 ------- 0 1.1 3.0 43 212
- 1.344 1 3 cbr 1000 ------- 0 1.1 3.0 43 212
r 1.3488 0 2 cbr 1000 ------- 0 0.1 2.0 41 207
r 1.3488 1 3 cbr 1000 ------- 0 1.1 3.0 41 208
+ 1.352 0 2 cbr 1000 ------- 0 0.1 2.0 44 213
- 1.352 0 2 cbr 1000 ------- 0 0.1 2.0 44 213
+ 1.352 1 3 cbr 1000 ------- 0 1.1 3.0 44 214
- 1.352 1 3 cbr 1000 ------- 0 1.1 3.0 44 214
r 1.3568 0 2 cbr 1000 ------- 0 0.1 2.0 42 209
r 1.3568 1 3 cbr 1000 ------- 0 1.1 3.0 42 210
+ 1.36 0 2 cbr 1000 ------- 0 0.1 2.0 45 215
- 1.36 0 2 cbr 1000 ------- 0 0.1 2.0 45 215
+ 1.36 1 3 cbr 1000 ------- 0 1.1 3.0 45 216
- 1.36 1 3 cbr 1000 ------- 0 1.1 3.0 45 216
r 1.3648 0 2 cbr 1000 ------- 0 0.1 2.0 43 211
r 1.3648 1 3 cbr 1000 ------- 0 1.1 3.0 43 212
+ 1.368 0 2 cbr 1000 ------- 0 0.1 2.0 46 217
- 1.368 0 2 cbr 1000 ------- 0 0.1 2.0 46 217
+ 1.368 1 3 cbr 1000 ------- 0 1.1 3.0 46 218
- 1.368 1 3 cbr 1000 ------- 0 1.1 3.0 46 218
r 1.3728 0 2 cbr 1000 ------- 0 0.1 2.0 44 213
r 1.3728 1 3 cbr 1000 ------- 0 1.1 3.0 44 214
+ 1.376 0 2 cbr 1000 ------- 0 0.1 2.0 47 219
- 1.376 0 2 cbr 1000 ------- 0 0.1 2.0 47 219
+ 1.376 1 3 cbr 1000 ------- 0 1.1 3.0 47 220
- 1.376 1 3 cbr 1000 ------- 0 1.1 3.0 47 220