+ 0.00017 0 1 rtProtoDV 2 ------- 0 0.2 1.2 -1 0
- 0.00017 0 1 rtProtoDV 2 ------- 0 0.2 1.2 -1 0
r 0.010186 0 1 rtProtoDV 2 ------- 0 0.2 1.2 -1 0
+ 0.27794 1 0 rtProtoDV 2 ------- 0 1.2 0.2 -1 1
- 0.27794 1 0 rtProtoDV 2 ------- 0 1.2 0.2 -1 1
r 0.287956 1 0 rtProtoDV 2 ------- 0 1.2 0.2 -1 1
+ 0.5 1 0 cbr 500 ------- 0 1.0 0.0 0 2
- 0.5 1 0 cbr 500 ------- 0 1.0 0.0 0 2
+ 0.505 1 0 cbr 500 ------- 0 1.0 0.0 1 3
- 0.505 1 0 cbr 500 ------- 0 1.0 0.0 1 3
+ 0.51 1 0 cbr 500 ------- 0 1.0 0.0 2 4
- 0.51 1 0 cbr 500 ------- 0 1.0 0.0 2 4
r 0.514 1 0 cbr 500 ------- 0 1.0 0.0 0 2
+ 0.515 1 0 cbr 500 ------- 0 1.0 0.0 3 5
- 0.515 1 0 cbr 500 ------- 0 1.0 0.0 3 5
r 0.519 1 0 cbr 500 ------- 0 1.0 0.0 1 3
+ 0.52 1 0 cbr 500 ------- 0 1.0 0.0 4 6
- 0.52 1 0 cbr 500 ------- 0 1.0 0.0 4 6
r 0.524 1 0 cbr 500 ------- 0 1.0 0.0 2 4
+ 0.525 1 0 cbr 500 ------- 0 1.0 0.0 5 7
- 0.525 1 0 cbr 500 ------- 0 1.0 0.0 5 7
r 0.529 1 0 cbr 500 ------- 0 1.0 0.0 3 5
+ 0.53 1 0 cbr 500 ------- 0 1.0 0.0 6 8
- 0.53 1 0 cbr 500 ------- 0 1.0 0.0 6 8
r 0.534 1 0 cbr 500 ------- 0 1.0 0.0 4 6
+ 0.535 1 0 cbr 500 ------- 0 1.0 0.0 7 9
- 0.535 1 0 cbr 500 ------- 0 1.0 0.0 7 9
r 0.539 1 0 cbr 500 ------- 0 1.0 0.0 5 7
+ 0.54 1 0 cbr 500 ------- 0 1.0 0.0 8 10
- 0.54 1 0 cbr 500 ------- 0 1.0 0.0 8 10
r 0.544 1 0 cbr 500 ------- 0 1.0 0.0 6 8
+ 0.545 1 0 cbr 500 ------- 0 1.0 0.0 9 11
- 0.545 1 0 cbr 500 ------- 0 1.0 0.0 9 11
r 0.549 1 0 cbr 500 ------- 0 1.0 0.0 7 9
+ 0.55 1 0 cbr 500 ------- 0 1.0 0.0 10 12
- 0.55 1 0 cbr 500 ------- 0 1.0 0.0 10 12
r 0.554 1 0 cbr 500 ------- 0 1.0 0.0 8 10
+ 0.555 1 0 cbr 500 ------- 0 1.0 0.0 11 13
- 0.555 1 0 cbr 500 ------- 0 1.0 0.0 11 13
r 0.559 1 0 cbr 500 ------- 0 1.0 0.0 9 11
+ 0.56 1 0 cbr 500 ------- 0 1.0 0.0 12 14
- 0.56 1 0 cbr 500 ------- 0 1.0 0.0 12 14
r 0.564 1 0 cbr 500 ------- 0 1.0 0.0 10 12
+ 0.565 1 0 cbr 500 ------- 0 1.0 0.0 13 15
- 0.565 1 0 cbr 500 ------- 0 1.0 0.0 13 15
r 0.569 1 0 cbr 500 ------- 0 1.0 0.0 11 13
+ 0.57 1 0 cbr 500 ------- 0 1.0 0.0 14 16
- 0.57 1 0 cbr 500 ------- 0 1.0 0.0 14 16
r 0.574 1 0 cbr 500 ------- 0 1.0 0.0 12 14
+ 0.575 1 0 cbr 500 ------- 0 1.0 0.0 15 17
- 0.575 1 0 cbr 500 ------- 0 1.0 0.0 15 17
r 0.579 1 0 cbr 500 ------- 0 1.0 0.0 13 15
+ 0.58 1 0 cbr 500 ------- 0 1.0 0.0 16 18
- 0.58 1 0 cbr 500 ------- 0 1.0 0.0 16 18
r 0.584 1 0 cbr 500 ------- 0 1.0 0.0 14 16
+ 0.585 1 0 cbr 500 ------- 0 1.0 0.0 17 19
- 0.585 1 0 cbr 500 ------- 0 1.0 0.0 17 19
r 0.589 1 0 cbr 500 ------- 0 1.0 0.0 15 17
+ 0.59 1 0 cbr 500 ------- 0 1.0 0.0 18 20
- 0.59 1 0 cbr 500 ------- 0 1.0 0.0 18 20
r 0.594 1 0 cbr 500 ------- 0 1.0 0.0 16 18
+ 0.595 1 0 cbr 500 ------- 0 1.0 0.0 19 21
- 0.595 1 0 cbr 500 ------- 0 1.0 0.0 19 21
r 0.599 1 0 cbr 500 ------- 0 1.0 0.0 17 19
+ 0.6 1 0 cbr 500 ------- 0 1.0 0.0 20 22
- 0.6 1 0 cbr 500 ------- 0 1.0 0.0 20 22
r 0.604 1 0 cbr 500 ------- 0 1.0 0.0 18 20
+ 0.605 1 0 cbr 500 ------- 0 1.0 0.0 21 23
- 0.605 1 0 cbr 500 ------- 0 1.0 0.0 21 23
r 0.609 1 0 cbr 500 ------- 0 1.0 0.0 19 21
+ 0.61 1 0 cbr 500 ------- 0 1.0 0.0 22 24
- 0.61 1 0 cbr 500 ------- 0 1.0 0.0 22 24
r 0.614 1 0 cbr 500 ------- 0 1.0 0.0 20 22
+ 0.615 1 0 cbr 500 ------- 0 1.0 0.0 23 25
- 0.615 1 0 cbr 500 ------- 0 1.0 0.0 23 25
r 0.619 1 0 cbr 500 ------- 0 1.0 0.0 21 23
+ 0.62 1 0 cbr 500 ------- 0 1.0 0.0 24 26
- 0.62 1 0 cbr 500 ------- 0 1.0 0.0 24 26
r 0.624 1 0 cbr 500 ------- 0 1.0 0.0 22 24
+ 0.625 1 0 cbr 500 ------- 0 1.0 0.0 25 27
- 0.625 1 0 cbr 500 ------- 0 1.0 0.0 25 27
r 0.629 1 0 cbr 500 ------- 0 1.0 0.0 23 25
+ 0.63 1 0 cbr 500 ------- 0 1.0 0.0 26 28
- 0.63 1 0 cbr 500 ------- 0 1.0 0.0 26 28
r 0.634 1 0 cbr 500 ------- 0 1.0 0.0 24 26
+ 0.635 1 0 cbr 500 ------- 0 1.0 0.0 27 29
- 0.635 1 0 cbr 500 ------- 0 1.0 0.0 27 29
r 0.639 1 0 cbr 500 ------- 0 1.0 0.0 25 27
+ 0.64 1 0 cbr 500 ------- 0 1.0 0.0 28 30
- 0.64 1 0 cbr 500 ------- 0 1.0 0.0 28 30
r 0.644 1 0 cbr 500 ------- 0 1.0 0.0 26 28
+ 0.645 1 0 cbr 500 ------- 0 1.0 0.0 29 31
- 0.645 1 0 cbr 500 ------- 0 1.0 0.0 29 31
r 0.649 1 0 cbr 500 ------- 0 1.0 0.0 27 29
+ 0.65 1 0 cbr 500 ------- 0 1.0 0.0 30 32
- 0.65 1 0 cbr 500 ------- 0 1.0 0.0 30 32
r 0.654 1 0 cbr 500 ------- 0 1.0 0.0 28 30
+ 0.655 1 0 cbr 500 ------- 0 1.0 0.0 31 33
- 0.655 1 0 cbr 500 ------- 0 1.0 0.0 31 33
r 0.659 1 0 cbr 500 ------- 0 1.0 0.0 29 31
+ 0.66 1 0 cbr 500 ------- 0 1.0 0.0 32 34
- 0.66 1 0 cbr 500 ------- 0 1.0 0.0 32 34
r 0.664 1 0 cbr 500 ------- 0 1.0 0.0 30 32
+ 0.665 1 0 cbr 500 ------- 0 1.0 0.0 33 35
- 0.665 1 0 cbr 500 ------- 0 1.0 0.0 33 35
r 0.669 1 0 cbr 500 ------- 0 1.0 0.0 31 33
+ 0.67 1 0 cbr 500 ------- 0 1.0 0.0 34 36
- 0.67 1 0 cbr 500 ------- 0 1.0 0.0 34 36
r 0.674 1 0 cbr 500 ------- 0 1.0 0.0 32 34
+ 0.675 1 0 cbr 500 ------- 0 1.0 0.0 35 37
- 0.675 1 0 cbr 500 ------- 0 1.0 0.0 35 37
r 0.679 1 0 cbr 500 ------- 0 1.0 0.0 33 35
+ 0.68 1 0 cbr 500 ------- 0 1.0 0.0 36 38
- 0.68 1 0 cbr 500 ------- 0 1.0 0.0 36 38
r 0.684 1 0 cbr 500 ------- 0 1.0 0.0 34 36
+ 0.685 1 0 cbr 500 ------- 0 1.0 0.0 37 39
- 0.685 1 0 cbr 500 ------- 0 1.0 0.0 37 39
r 0.689 1 0 cbr 500 ------- 0 1.0 0.0 35 37
+ 0.69 1 0 cbr 500 ------- 0 1.0 0.0 38 40
- 0.69 1 0 cbr 500 ------- 0 1.0 0.0 38 40
r 0.694 1 0 cbr 500 ------- 0 1.0 0.0 36 38
+ 0.695 1 0 cbr 500 ------- 0 1.0 0.0 39 41
- 0.695 1 0 cbr 500 ------- 0 1.0 0.0 39 41
r 0.699 1 0 cbr 500 ------- 0 1.0 0.0 37 39
+ 0.7 1 0 cbr 500 ------- 0 1.0 0.0 40 42
- 0.7 1 0 cbr 500 ------- 0 1.0 0.0 40 42
r 0.704 1 0 cbr 500 ------- 0 1.0 0.0 38 40
+ 0.705 1 0 cbr 500 ------- 0 1.0 0.0 41 43
- 0.705 1 0 cbr 500 ------- 0 1.0 0.0 41 43
r 0.709 1 0 cbr 500 ------- 0 1.0 0.0 39 41
+ 0.71 1 0 cbr 500 ------- 0 1.0 0.0 42 44
- 0.71 1 0 cbr 500 ------- 0 1.0 0.0 42 44
r 0.714 1 0 cbr 500 ------- 0 1.0 0.0 40 42
+ 0.715 1 0 cbr 500 ------- 0 1.0 0.0 43 45
- 0.715 1 0 cbr 500 ------- 0 1.0 0.0 43 45
r 0.719 1 0 cbr 500 ------- 0 1.0 0.0 41 43
+ 0.72 1 0 cbr 500 ------- 0 1.0 0.0 44 46
- 0.72 1 0 cbr 500 ------- 0 1.0 0.0 44 46
r 0.724 1 0 cbr 500 ------- 0 1.0 0.0 42 44
+ 0.725 1 0 cbr 500 ------- 0 1.0 0.0 45 47
- 0.725 1 0 cbr 500 ------- 0 1.0 0.0 45 47
r 0.729 1 0 cbr 500 ------- 0 1.0 0.0 43 45
+ 0.73 1 0 cbr 500 ------- 0 1.0 0.0 46 48
- 0.73 1 0 cbr 500 ------- 0 1.0 0.0 46 48
r 0.734 1 0 cbr 500 ------- 0 1.0 0.0 44 46
+ 0.735 1 0 cbr 500 ------- 0 1.0 0.0 47 49
- 0.735 1 0 cbr 500 ------- 0 1.0 0.0 47 49
r 0.739 1 0 cbr 500 ------- 0 1.0 0.0 45 47
+ 0.74 1 0 cbr 500 ------- 0 1.0 0.0 48 50
- 0.74 1 0 cbr 500 ------- 0 1.0 0.0 48 50
r 0.744 1 0 cbr 500 ------- 0 1.0 0.0 46 48
+ 0.745 1 0 cbr 500 ------- 0 1.0 0.0 49 51
- 0.745 1 0 cbr 500 ------- 0 1.0 0.0 49 51
r 0.749 1 0 cbr 500 ------- 0 1.0 0.0 47 49
+ 0.75 1 0 cbr 500 ------- 0 1.0 0.0 50 52
- 0.75 1 0 cbr 500 ------- 0 1.0 0.0 50 52
r 0.754 1 0 cbr 500 ------- 0 1.0 0.0 48 50
+ 0.755 1 0 cbr 500 ------- 0 1.0 0.0 51 53
- 0.755 1 0 cbr 500 ------- 0 1.0 0.0 51 53
r 0.759 1 0 cbr 500 ------- 0 1.0 0.0 49 51
+ 0.76 1 0 cbr 500 ------- 0 1.0 0.0 52 54
- 0.76 1 0 cbr 500 ------- 0 1.0 0.0 52 54
r 0.764 1 0 cbr 500 ------- 0 1.0 0.0 50 52
+ 0.765 1 0 cbr 500 ------- 0 1.0 0.0 53 55
- 0.765 1 0 cbr 500 ------- 0 1.0 0.0 53 55
r 0.769 1 0 cbr 500 ------- 0 1.0 0.0 51 53
+ 0.77 1 0 cbr 500 ------- 0 1.0 0.0 54 56
- 0.77 1 0 cbr 500 ------- 0 1.0 0.0 54 56
r 0.774 1 0 cbr 500 ------- 0 1.0 0.0 52 54
+ 0.775 1 0 cbr 500 ------- 0 1.0 0.0 55 57
- 0.775 1 0 cbr 500 ------- 0 1.0 0.0 55 57
r 0.779 1 0 cbr 500 ------- 0 1.0 0.0 53 55
+ 0.78 1 0 cbr 500 ------- 0 1.0 0.0 56 58
- 0.78 1 0 cbr 500 ------- 0 1.0 0.0 56 58
r 0.784 1 0 cbr 500 ------- 0 1.0 0.0 54 56
+ 0.785 1 0 cbr 500 ------- 0 1.0 0.0 57 59
- 0.785 1 0 cbr 500 ------- 0 1.0 0.0 57 59
r 0.789 1 0 cbr 500 ------- 0 1.0 0.0 55 57
+ 0.79 1 0 cbr 500 ------- 0 1.0 0.0 58 60
- 0.79 1 0 cbr 500 ------- 0 1.0 0.0 58 60
r 0.794 1 0 cbr 500 ------- 0 1.0 0.0 56 58
+ 0.795 1 0 cbr 500 ------- 0 1.0 0.0 59 61
- 0.795 1 0 cbr 500 ------- 0 1.0 0.0 59 61
r 0.799 1 0 cbr 500 ------- 0 1.0 0.0 57 59
+ 0.8 1 0 cbr 500 ------- 0 1.0 0.0 60 62
- 0.8 1 0 cbr 500 ------- 0 1.0 0.0 60 62
r 0.804 1 0 cbr 500 ------- 0 1.0 0.0 58 60
+ 0.805 1 0 cbr 500 ------- 0 1.0 0.0 61 63
- 0.805 1 0 cbr 500 ------- 0 1.0 0.0 61 63
r 0.809 1 0 cbr 500 ------- 0 1.0 0.0 59 61
+ 0.81 1 0 cbr 500 ------- 0 1.0 0.0 62 64
- 0.81 1 0 cbr 500 ------- 0 1.0 0.0 62 64
r 0.814 1 0 cbr 500 ------- 0 1.0 0.0 60 62
+ 0.815 1 0 cbr 500 ------- 0 1.0 0.0 63 65
- 0.815 1 0 cbr 500 ------- 0 1.0 0.0 63 65
r 0.819 1 0 cbr 500 ------- 0 1.0 0.0 61 63
+ 0.82 1 0 cbr 500 ------- 0 1.0 0.0 64 66
- 0.82 1 0 cbr 500 ------- 0 1.0 0.0 64 66
r 0.824 1 0 cbr 500 ------- 0 1.0 0.0 62 64
+ 0.825 1 0 cbr 500 ------- 0 1.0 0.0 65 67
- 0.825 1 0 cbr 500 ------- 0 1.0 0.0 65 67
r 0.829 1 0 cbr 500 ------- 0 1.0 0.0 63 65
+ 0.83 1 0 cbr 500 ------- 0 1.0 0.0 66 68
- 0.83 1 0 cbr 500 ------- 0 1.0 0.0 66 68
r 0.834 1 0 cbr 500 ------- 0 1.0 0.0 64 66
+ 0.835 1 0 cbr 500 ------- 0 1.0 0.0 67 69
- 0.835 1 0 cbr 500 ------- 0 1.0 0.0 67 69
r 0.839 1 0 cbr 500 ------- 0 1.0 0.0 65 67
+ 0.84 1 0 cbr 500 ------- 0 1.0 0.0 68 70
- 0.84 1 0 cbr 500 ------- 0 1.0 0.0 68 70
r 0.844 1 0 cbr 500 ------- 0 1.0 0.0 66 68
+ 0.845 1 0 cbr 500 ------- 0 1.0 0.0 69 71
- 0.845 1 0 cbr 500 ------- 0 1.0 0.0 69 71
r 0.849 1 0 cbr 500 ------- 0 1.0 0.0 67 69
+ 0.85 1 0 cbr 500 ------- 0 1.0 0.0 70 72
- 0.85 1 0 cbr 500 ------- 0 1.0 0.0 70 72
r 0.854 1 0 cbr 500 ------- 0 1.0 0.0 68 70
+ 0.855 1 0 cbr 500 ------- 0 1.0 0.0 71 73
- 0.855 1 0 cbr 500 ------- 0 1.0 0.0 71 73
r 0.859 1 0 cbr 500 ------- 0 1.0 0.0 69 71
+ 0.86 1 0 cbr 500 ------- 0 1.0 0.0 72 74
- 0.86 1 0 cbr 500 ------- 0 1.0 0.0 72 74
r 0.864 1 0 cbr 500 ------- 0 1.0 0.0 70 72
+ 0.865 1 0 cbr 500 ------- 0 1.0 0.0 73 75
- 0.865 1 0 cbr 500 ------- 0 1.0 0.0 73 75
r 0.869 1 0 cbr 500 ------- 0 1.0 0.0 71 73
+ 0.87 1 0 cbr 500 ------- 0 1.0 0.0 74 76
- 0.87 1 0 cbr 500 ------- 0 1.0 0.0 74 76
r 0.874 1 0 cbr 500 ------- 0 1.0 0.0 72 74
+ 0.875 1 0 cbr 500 ------- 0 1.0 0.0 75 77
- 0.875 1 0 cbr 500 ------- 0 1.0 0.0 75 77
r 0.879 1 0 cbr 500 ------- 0 1.0 0.0 73 75
+ 0.88 1 0 cbr 500 ------- 0 1.0 0.0 76 78
- 0.88 1 0 cbr 500 ------- 0 1.0 0.0 76 78
r 0.884 1 0 cbr 500 ------- 0 1.0 0.0 74 76
+ 0.885 1 0 cbr 500 ------- 0 1.0 0.0 77 79
- 0.885 1 0 cbr 500 ------- 0 1.0 0.0 77 79
r 0.889 1 0 cbr 500 ------- 0 1.0 0.0 75 77
+ 0.89 1 0 cbr 500 ------- 0 1.0 0.0 78 80
- 0.89 1 0 cbr 500 ------- 0 1.0 0.0 78 80
r 0.894 1 0 cbr 500 ------- 0 1.0 0.0 76 78
+ 0.895 1 0 cbr 500 ------- 0 1.0 0.0 79 81
- 0.895 1 0 cbr 500 ------- 0 1.0 0.0 79 81
r 0.899 1 0 cbr 500 ------- 0 1.0 0.0 77 79
+ 0.9 1 0 cbr 500 ------- 0 1.0 0.0 80 82
- 0.9 1 0 cbr 500 ------- 0 1.0 0.0 80 82
r 0.904 1 0 cbr 500 ------- 0 1.0 0.0 78 80
+ 0.905 1 0 cbr 500 ------- 0 1.0 0.0 81 83
- 0.905 1 0 cbr 500 ------- 0 1.0 0.0 81 83
r 0.909 1 0 cbr 500 ------- 0 1.0 0.0 79 81
+ 0.91 1 0 cbr 500 ------- 0 1.0 0.0 82 84
- 0.91 1 0 cbr 500 ------- 0 1.0 0.0 82 84
r 0.914 1 0 cbr 500 ------- 0 1.0 0.0 80 82
+ 0.915 1 0 cbr 500 ------- 0 1.0 0.0 83 85
- 0.915 1 0 cbr 500 ------- 0 1.0 0.0 83 85
r 0.919 1 0 cbr 500 ------- 0 1.0 0.0 81 83
+ 0.92 1 0 cbr 500 ------- 0 1.0 0.0 84 86
- 0.92 1 0 cbr 500 ------- 0 1.0 0.0 84 86
r 0.924 1 0 cbr 500 ------- 0 1.0 0.0 82 84
+ 0.925 1 0 cbr 500 ------- 0 1.0 0.0 85 87
- 0.925 1 0 cbr 500 ------- 0 1.0 0.0 85 87
r 0.929 1 0 cbr 500 ------- 0 1.0 0.0 83 85
+ 0.93 1 0 cbr 500 ------- 0 1.0 0.0 86 88
- 0.93 1 0 cbr 500 ------- 0 1.0 0.0 86 88
r 0.934 1 0 cbr 500 ------- 0 1.0 0.0 84 86
+ 0.935 1 0 cbr 500 ------- 0 1.0 0.0 87 89
- 0.935 1 0 cbr 500 ------- 0 1.0 0.0 87 89
r 0.939 1 0 cbr 500 ------- 0 1.0 0.0 85 87
+ 0.94 1 0 cbr 500 ------- 0 1.0 0.0 88 90
- 0.94 1 0 cbr 500 ------- 0 1.0 0.0 88 90
r 0.944 1 0 cbr 500 ------- 0 1.0 0.0 86 88
+ 0.945 1 0 cbr 500 ------- 0 1.0 0.0 89 91
- 0.945 1 0 cbr 500 ------- 0 1.0 0.0 89 91
r 0.949 1 0 cbr 500 ------- 0 1.0 0.0 87 89
+ 0.95 1 0 cbr 500 ------- 0 1.0 0.0 90 92
- 0.95 1 0 cbr 500 ------- 0 1.0 0.0 90 92
r 0.954 1 0 cbr 500 ------- 0 1.0 0.0 88 90
+ 0.955 1 0 cbr 500 ------- 0 1.0 0.0 91 93
- 0.955 1 0 cbr 500 ------- 0 1.0 0.0 91 93
r 0.959 1 0 cbr 500 ------- 0 1.0 0.0 89 91
+ 0.96 1 0 cbr 500 ------- 0 1.0 0.0 92 94
- 0.96 1 0 cbr 500 ------- 0 1.0 0.0 92 94
r 0.964 1 0 cbr 500 ------- 0 1.0 0.0 90 92
+ 0.965 1 0 cbr 500 ------- 0 1.0 0.0 93 95
- 0.965 1 0 cbr 500 ------- 0 1.0 0.0 93 95
r 0.969 1 0 cbr 500 ------- 0 1.0 0.0 91 93
+ 0.97 1 0 cbr 500 ------- 0 1.0 0.0 94 96
- 0.97 1 0 cbr 500 ------- 0 1.0 0.0 94 96
r 0.974 1 0 cbr 500 ------- 0 1.0 0.0 92 94
+ 0.975 1 0 cbr 500 ------- 0 1.0 0.0 95 97
- 0.975 1 0 cbr 500 ------- 0 1.0 0.0 95 97
r 0.979 1 0 cbr 500 ------- 0 1.0 0.0 93 95
+ 0.98 1 0 cbr 500 ------- 0 1.0 0.0 96 98
- 0.98 1 0 cbr 500 ------- 0 1.0 0.0 96 98
r 0.984 1 0 cbr 500 ------- 0 1.0 0.0 94 96
+ 0.985 1 0 cbr 500 ------- 0 1.0 0.0 97 99
- 0.985 1 0 cbr 500 ------- 0 1.0 0.0 97 99
r 0.989 1 0 cbr 500 ------- 0 1.0 0.0 95 97
+ 0.99 1 0 cbr 500 ------- 0 1.0 0.0 98 100
- 0.99 1 0 cbr 500 ------- 0 1.0 0.0 98 100
r 0.994 1 0 cbr 500 ------- 0 1.0 0.0 96 98
+ 0.995 1 0 cbr 500 ------- 0 1.0 0.0 99 101
- 0.995 1 0 cbr 500 ------- 0 1.0 0.0 99 101
r 0.999 1 0 cbr 500 ------- 0 1.0 0.0 97 99
+ 1 1 0 cbr 500 ------- 0 1.0 0.0 100 102
- 1 1 0 cbr 500 ------- 0 1.0 0.0 100 102
r 1.004 1 0 cbr 500 ------- 0 1.0 0.0 98 100
+ 1.005 1 0 cbr 500 ------- 0 1.0 0.0 101 103
- 1.005 1 0 cbr 500 ------- 0 1.0 0.0 101 103
r 1.009 1 0 cbr 500 ------- 0 1.0 0.0 99 101
+ 1.01 1 0 cbr 500 ------- 0 1.0 0.0 102 104
- 1.01 1 0 cbr 500 ------- 0 1.0 0.0 102 104
r 1.014 1 0 cbr 500 ------- 0 1.0 0.0 100 102
+ 1.015 1 0 cbr 500 ------- 0 1.0 0.0 103 105
- 1.015 1 0 cbr 500 ------- 0 1.0 0.0 103 105
r 1.019 1 0 cbr 500 ------- 0 1.0 0.0 101 103
+ 1.02 1 0 cbr 500 ------- 0 1.0 0.0 104 106
- 1.02 1 0 cbr 500 ------- 0 1.0 0.0 104 106
r 1.024 1 0 cbr 500 ------- 0 1.0 0.0 102 104
+ 1.025 1 0 cbr 500 ------- 0 1.0 0.0 105 107
- 1.025 1 0 cbr 500 ------- 0 1.0 0.0 105 107
r 1.029 1 0 cbr 500 ------- 0 1.0 0.0 103 105
+ 1.03 1 0 cbr 500 ------- 0 1.0 0.0 106 108
- 1.03 1 0 cbr 500 ------- 0 1.0 0.0 106 108
r 1.034 1 0 cbr 500 ------- 0 1.0 0.0 104 106
+ 1.035 1 0 cbr 500 ------- 0 1.0 0.0 107 109
- 1.035 1 0 cbr 500 ------- 0 1.0 0.0 107 109
r 1.039 1 0 cbr 500 ------- 0 1.0 0.0 105 107
+ 1.04 1 0 cbr 500 ------- 0 1.0 0.0 108 110
- 1.04 1 0 cbr 500 ------- 0 1.0 0.0 108 110
r 1.044 1 0 cbr 500 ------- 0 1.0 0.0 106 108
+ 1.045 1 0 cbr 500 ------- 0 1.0 0.0 109 111
- 1.045 1 0 cbr 500 ------- 0 1.0 0.0 109 111
r 1.049 1 0 cbr 500 ------- 0 1.0 0.0 107 109
+ 1.05 1 0 cbr 500 ------- 0 1.0 0.0 110 112
- 1.05 1 0 cbr 500 ------- 0 1.0 0.0 110 112
r 1.054 1 0 cbr 500 ------- 0 1.0 0.0 108 110
+ 1.055 1 0 cbr 500 ------- 0 1.0 0.0 111 113
- 1.055 1 0 cbr 500 ------- 0 1.0 0.0 111 113
r 1.059 1 0 cbr 500 ------- 0 1.0 0.0 109 111
+ 1.06 1 0 cbr 500 ------- 0 1.0 0.0 112 114
- 1.06 1 0 cbr 500 ------- 0 1.0 0.0 112 114
r 1.064 1 0 cbr 500 ------- 0 1.0 0.0 110 112
+ 1.065 1 0 cbr 500 ------- 0 1.0 0.0 113 115
- 1.065 1 0 cbr 500 ------- 0 1.0 0.0 113 115
r 1.069 1 0 cbr 500 ------- 0 1.0 0.0 111 113
+ 1.07 1 0 cbr 500 ------- 0 1.0 0.0 114 116
- 1.07 1 0 cbr 500 ------- 0 1.0 0.0 114 116
r 1.074 1 0 cbr 500 ------- 0 1.0 0.0 112 114
+ 1.075 1 0 cbr 500 ------- 0 1.0 0.0 115 117
- 1.075 1 0 cbr 500 ------- 0 1.0 0.0 115 117
r 1.079 1 0 cbr 500 ------- 0 1.0 0.0 113 115
+ 1.08 1 0 cbr 500 ------- 0 1.0 0.0 116 118
- 1.08 1 0 cbr 500 ------- 0 1.0 0.0 116 118
r 1.084 1 0 cbr 500 ------- 0 1.0 0.0 114 116
+ 1.085 1 0 cbr 500 ------- 0 1.0 0.0 117 119
- 1.085 1 0 cbr 500 ------- 0 1.0 0.0 117 119
r 1.089 1 0 cbr 500 ------- 0 1.0 0.0 115 117
+ 1.09 1 0 cbr 500 ------- 0 1.0 0.0 118 120
- 1.09 1 0 cbr 500 ------- 0 1.0 0.0 118 120
r 1.094 1 0 cbr 500 ------- 0 1.0 0.0 116 118
+ 1.095 1 0 cbr 500 ------- 0 1.0 0.0 119 121
- 1.095 1 0 cbr 500 ------- 0 1.0 0.0 119 121
r 1.099 1 0 cbr 500 ------- 0 1.0 0.0 117 119
+ 1.1 1 0 cbr 500 ------- 0 1.0 0.0 120 122
- 1.1 1 0 cbr 500 ------- 0 1.0 0.0 120 122
r 1.104 1 0 cbr 500 ------- 0 1.0 0.0 118 120
+ 1.105 1 0 cbr 500 ------- 0 1.0 0.0 121 123
- 1.105 1 0 cbr 500 ------- 0 1.0 0.0 121 123
r 1.109 1 0 cbr 500 ------- 0 1.0 0.0 119 121
+ 1.11 1 0 cbr 500 ------- 0 1.0 0.0 122 124
- 1.11 1 0 cbr 500 ------- 0 1.0 0.0 122 124
r 1.114 1 0 cbr 500 ------- 0 1.0 0.0 120 122
+ 1.115 1 0 cbr 500 ------- 0 1.0 0.0 123 125
- 1.115 1 0 cbr 500 ------- 0 1.0 0.0 123 125
r 1.119 1 0 cbr 500 ------- 0 1.0 0.0 121 123
+ 1.12 1 0 cbr 500 ------- 0 1.0 0.0 124 126
- 1.12 1 0 cbr 500 ------- 0 1.0 0.0 124 126
r 1.124 1 0 cbr 500 ------- 0 1.0 0.0 122 124
+ 1.125 1 0 cbr 500 ------- 0 1.0 0.0 125 127
- 1.125 1 0 cbr 500 ------- 0 1.0 0.0 125 127
r 1.129 1 0 cbr 500 ------- 0 1.0 0.0 123 125
+ 1.13 1 0 cbr 500 ------- 0 1.0 0.0 126 128
- 1.13 1 0 cbr 500 ------- 0 1.0 0.0 126 128
r 1.134 1 0 cbr 500 ------- 0 1.0 0.0 124 126
+ 1.135 1 0 cbr 500 ------- 0 1.0 0.0 127 129
- 1.135 1 0 cbr 500 ------- 0 1.0 0.0 127 129
r 1.139 1 0 cbr 500 ------- 0 1.0 0.0 125 127
+ 1.14 1 0 cbr 500 ------- 0 1.0 0.0 128 130
- 1.14 1 0 cbr 500 ------- 0 1.0 0.0 128 130
r 1.144 1 0 cbr 500 ------- 0 1.0 0.0 126 128
+ 1.145 1 0 cbr 500 ------- 0 1.0 0.0 129 131
- 1.145 1 0 cbr 500 ------- 0 1.0 0.0 129 131
r 1.149 1 0 cbr 500 ------- 0 1.0 0.0 127 129
+ 1.15 1 0 cbr 500 ------- 0 1.0 0.0 130 132
- 1.15 1 0 cbr 500 ------- 0 1.0 0.0 130 132
r 1.154 1 0 cbr 500 ------- 0 1.0 0.0 128 130
+ 1.155 1 0 cbr 500 ------- 0 1.0 0.0 131 133
- 1.155 1 0 cbr 500 ------- 0 1.0 0.0 131 133
r 1.159 1 0 cbr 500 ------- 0 1.0 0.0 129 131
+ 1.16 1 0 cbr 500 ------- 0 1.0 0.0 132 134
- 1.16 1 0 cbr 500 ------- 0 1.0 0.0 132 134
r 1.164 1 0 cbr 500 ------- 0 1.0 0.0 130 132
+ 1.165 1 0 cbr 500 ------- 0 1.0 0.0 133 135
- 1.165 1 0 cbr 500 ------- 0 1.0 0.0 133 135
r 1.169 1 0 cbr 500 ------- 0 1.0 0.0 131 133
+ 1.17 1 0 cbr 500 ------- 0 1.0 0.0 134 136
- 1.17 1 0 cbr 500 ------- 0 1.0 0.0 134 136
r 1.174 1 0 cbr 500 ------- 0 1.0 0.0 132 134
+ 1.175 1 0 cbr 500 ------- 0 1.0 0.0 135 137
- 1.175 1 0 cbr 500 ------- 0 1.0 0.0 135 137
r 1.179 1 0 cbr 500 ------- 0 1.0 0.0 133 135
+ 1.18 1 0 cbr 500 ------- 0 1.0 0.0 136 138
- 1.18 1 0 cbr 500 ------- 0 1.0 0.0 136 138
r 1.184 1 0 cbr 500 ------- 0 1.0 0.0 134 136
+ 1.185 1 0 cbr 500 ------- 0 1.0 0.0 137 139
- 1.185 1 0 cbr 500 ------- 0 1.0 0.0 137 139
r 1.189 1 0 cbr 500 ------- 0 1.0 0.0 135 137
+ 1.19 1 0 cbr 500 ------- 0 1.0 0.0 138 140
- 1.19 1 0 cbr 500 ------- 0 1.0 0.0 138 140
r 1.194 1 0 cbr 500 ------- 0 1.0 0.0 136 138
+ 1.195 1 0 cbr 500 ------- 0 1.0 0.0 139 141
- 1.195 1 0 cbr 500 ------- 0 1.0 0.0 139 141
r 1.199 1 0 cbr 500 ------- 0 1.0 0.0 137 139
+ 1.2 1 0 cbr 500 ------- 0 1.0 0.0 140 142
- 1.2 1 0 cbr 500 ------- 0 1.0 0.0 140 142
r 1.204 1 0 cbr 500 ------- 0 1.0 0.0 138 140
+ 1.205 1 0 cbr 500 ------- 0 1.0 0.0 141 143
- 1.205 1 0 cbr 500 ------- 0 1.0 0.0 141 143
r 1.209 1 0 cbr 500 ------- 0 1.0 0.0 139 141
+ 1.21 1 0 cbr 500 ------- 0 1.0 0.0 142 144
- 1.21 1 0 cbr 500 ------- 0 1.0 0.0 142 144
r 1.214 1 0 cbr 500 ------- 0 1.0 0.0 140 142
+ 1.215 1 0 cbr 500 ------- 0 1.0 0.0 143 145
- 1.215 1 0 cbr 500 ------- 0 1.0 0.0 143 145
r 1.219 1 0 cbr 500 ------- 0 1.0 0.0 141 143
+ 1.22 1 0 cbr 500 ------- 0 1.0 0.0 144 146
- 1.22 1 0 cbr 500 ------- 0 1.0 0.0 144 146
r 1.224 1 0 cbr 500 ------- 0 1.0 0.0 142 144
+ 1.225 1 0 cbr 500 ------- 0 1.0 0.0 145 147
- 1.225 1 0 cbr 500 ------- 0 1.0 0.0 145 147
r 1.229 1 0 cbr 500 ------- 0 1.0 0.0 143 145
+ 1.23 1 0 cbr 500 ------- 0 1.0 0.0 146 148
- 1.23 1 0 cbr 500 ------- 0 1.0 0.0 146 148
r 1.234 1 0 cbr 500 ------- 0 1.0 0.0 144 146
+ 1.235 1 0 cbr 500 ------- 0 1.0 0.0 147 149
- 1.235 1 0 cbr 500 ------- 0 1.0 0.0 147 149
r 1.239 1 0 cbr 500 ------- 0 1.0 0.0 145 147
+ 1.24 1 0 cbr 500 ------- 0 1.0 0.0 148 150
- 1.24 1 0 cbr 500 ------- 0 1.0 0.0 148 150
r 1.244 1 0 cbr 500 ------- 0 1.0 0.0 146 148
+ 1.245 1 0 cbr 500 ------- 0 1.0 0.0 149 151
- 1.245 1 0 cbr 500 ------- 0 1.0 0.0 149 151
r 1.249 1 0 cbr 500 ------- 0 1.0 0.0 147 149
+ 1.25 1 0 cbr 500 ------- 0 1.0 0.0 150 152
- 1.25 1 0 cbr 500 ------- 0 1.0 0.0 150 152
r 1.254 1 0 cbr 500 ------- 0 1.0 0.0 148 150
+ 1.255 1 0 cbr 500 ------- 0 1.0 0.0 151 153
- 1.255 1 0 cbr 500 ------- 0 1.0 0.0 151 153
r 1.259 1 0 cbr 500 ------- 0 1.0 0.0 149 151
+ 1.26 1 0 cbr 500 ------- 0 1.0 0.0 152 154
- 1.26 1 0 cbr 500 ------- 0 1.0 0.0 152 154
r 1.264 1 0 cbr 500 ------- 0 1.0 0.0 150 152
+ 1.265 1 0 cbr 500 ------- 0 1.0 0.0 153 155
- 1.265 1 0 cbr 500 ------- 0 1.0 0.0 153 155
r 1.269 1 0 cbr 500 ------- 0 1.0 0.0 151 153
+ 1.27 1 0 cbr 500 ------- 0 1.0 0.0 154 156
- 1.27 1 0 cbr 500 ------- 0 1.0 0.0 154 156
r 1.274 1 0 cbr 500 ------- 0 1.0 0.0 152 154
+ 1.275 1 0 cbr 500 ------- 0 1.0 0.0 155 157
- 1.275 1 0 cbr 500 ------- 0 1.0 0.0 155 157
r 1.279 1 0 cbr 500 ------- 0 1.0 0.0 153 155
+ 1.28 1 0 cbr 500 ------- 0 1.0 0.0 156 158
- 1.28 1 0 cbr 500 ------- 0 1.0 0.0 156 158
r 1.284 1 0 cbr 500 ------- 0 1.0 0.0 154 156
+ 1.285 1 0 cbr 500 ------- 0 1.0 0.0 157 159
- 1.285 1 0 cbr 500 ------- 0 1.0 0.0 157 159
r 1.289 1 0 cbr 500 ------- 0 1.0 0.0 155 157
+ 1.29 1 0 cbr 500 ------- 0 1.0 0.0 158 160
- 1.29 1 0 cbr 500 ------- 0 1.0 0.0 158 160
r 1.294 1 0 cbr 500 ------- 0 1.0 0.0 156 158
+ 1.295 1 0 cbr 500 ------- 0 1.0 0.0 159 161
- 1.295 1 0 cbr 500 ------- 0 1.0 0.0 159 161
r 1.299 1 0 cbr 500 ------- 0 1.0 0.0 157 159
+ 1.3 1 0 cbr 500 ------- 0 1.0 0.0 160 162
- 1.3 1 0 cbr 500 ------- 0 1.0 0.0 160 162
r 1.304 1 0 cbr 500 ------- 0 1.0 0.0 158 160
+ 1.305 1 0 cbr 500 ------- 0 1.0 0.0 161 163
- 1.305 1 0 cbr 500 ------- 0 1.0 0.0 161 163
r 1.309 1 0 cbr 500 ------- 0 1.0 0.0 159 161
+ 1.31 1 0 cbr 500 ------- 0 1.0 0.0 162 164
- 1.31 1 0 cbr 500 ------- 0 1.0 0.0 162 164
r 1.314 1 0 cbr 500 ------- 0 1.0 0.0 160 162
+ 1.315 1 0 cbr 500 ------- 0 1.0 0.0 163 165
- 1.315 1 0 cbr 500 ------- 0 1.0 0.0 163 165
r 1.319 1 0 cbr 500 ------- 0 1.0 0.0 161 163
+ 1.32 1 0 cbr 500 ------- 0 1.0 0.0 164 166
- 1.32 1 0 cbr 500 ------- 0 1.0 0.0 164 166
r 1.324 1 0 cbr 500 ------- 0 1.0 0.0 162 164
+ 1.325 1 0 cbr 500 ------- 0 1.0 0.0 165 167
- 1.325 1 0 cbr 500 ------- 0 1.0 0.0 165 167
r 1.329 1 0 cbr 500 ------- 0 1.0 0.0 163 165
+ 1.33 1 0 cbr 500 ------- 0 1.0 0.0 166 168
- 1.33 1 0 cbr 500 ------- 0 1.0 0.0 166 168
r 1.334 1 0 cbr 500 ------- 0 1.0 0.0 164 166
+ 1.335 1 0 cbr 500 ------- 0 1.0 0.0 167 169
- 1.335 1 0 cbr 500 ------- 0 1.0 0.0 167 169
r 1.339 1 0 cbr 500 ------- 0 1.0 0.0 165 167
+ 1.34 1 0 cbr 500 ------- 0 1.0 0.0 168 170
- 1.34 1 0 cbr 500 ------- 0 1.0 0.0 168 170
r 1.344 1 0 cbr 500 ------- 0 1.0 0.0 166 168
+ 1.345 1 0 cbr 500 ------- 0 1.0 0.0 169 171
- 1.345 1 0 cbr 500 ------- 0 1.0 0.0 169 171
r 1.349 1 0 cbr 500 ------- 0 1.0 0.0 167 169
+ 1.35 1 0 cbr 500 ------- 0 1.0 0.0 170 172
- 1.35 1 0 cbr 500 ------- 0 1.0 0.0 170 172
r 1.354 1 0 cbr 500 ------- 0 1.0 0.0 168 170
+ 1.355 1 0 cbr 500 ------- 0 1.0 0.0 171 173
- 1.355 1 0 cbr 500 ------- 0 1.0 0.0 171 173
r 1.359 1 0 cbr 500 ------- 0 1.0 0.0 169 171
+ 1.36 1 0 cbr 500 ------- 0 1.0 0.0 172 174
- 1.36 1 0 cbr 500 ------- 0 1.0 0.0 172 174
r 1.364 1 0 cbr 500 ------- 0 1.0 0.0 170 172
+ 1.365 1 0 cbr 500 ------- 0 1.0 0.0 173 175
- 1.365 1 0 cbr 500 ------- 0 1.0 0.0 173 175
r 1.369 1 0 cbr 500 ------- 0 1.0 0.0 171 173
+ 1.37 1 0 cbr 500 ------- 0 1.0 0.0 174 176
- 1.37 1 0 cbr 500 ------- 0 1.0 0.0 174 176
r 1.374 1 0 cbr 500 ------- 0 1.0 0.0 172 174
+ 1.375 1 0 cbr 500 ------- 0 1.0 0.0 175 177
- 1.375 1 0 cbr 500 ------- 0 1.0 0.0 175 177
r 1.379 1 0 cbr 500 ------- 0 1.0 0.0 173 175
+ 1.38 1 0 cbr 500 ------- 0 1.0 0.0 176 178
- 1.38 1 0 cbr 500 ------- 0 1.0 0.0 176 178
r 1.384 1 0 cbr 500 ------- 0 1.0 0.0 174 176
+ 1.385 1 0 cbr 500 ------- 0 1.0 0.0 177 179
- 1.385 1 0 cbr 500 ------- 0 1.0 0.0 177 179
r 1.389 1 0 cbr 500 ------- 0 1.0 0.0 175 177
+ 1.39 1 0 cbr 500 ------- 0 1.0 0.0 178 180
- 1.39 1 0 cbr 500 ------- 0 1.0 0.0 178 180
r 1.394 1 0 cbr 500 ------- 0 1.0 0.0 176 178
+ 1.395 1 0 cbr 500 ------- 0 1.0 0.0 179 181
- 1.395 1 0 cbr 500 ------- 0 1.0 0.0 179 181
r 1.399 1 0 cbr 500 ------- 0 1.0 0.0 177 179
+ 1.4 1 0 cbr 500 ------- 0 1.0 0.0 180 182
- 1.4 1 0 cbr 500 ------- 0 1.0 0.0 180 182
r 1.404 1 0 cbr 500 ------- 0 1.0 0.0 178 180
+ 1.405 1 0 cbr 500 ------- 0 1.0 0.0 181 183
- 1.405 1 0 cbr 500 ------- 0 1.0 0.0 181 183
r 1.409 1 0 cbr 500 ------- 0 1.0 0.0 179 181
+ 1.41 1 0 cbr 500 ------- 0 1.0 0.0 182 184
- 1.41 1 0 cbr 500 ------- 0 1.0 0.0 182 184
r 1.414 1 0 cbr 500 ------- 0 1.0 0.0 180 182
+ 1.415 1 0 cbr 500 ------- 0 1.0 0.0 183 185
- 1.415 1 0 cbr 500 ------- 0 1.0 0.0 183 185
r 1.419 1 0 cbr 500 ------- 0 1.0 0.0 181 183
+ 1.42 1 0 cbr 500 ------- 0 1.0 0.0 184 186
- 1.42 1 0 cbr 500 ------- 0 1.0 0.0 184 186
r 1.424 1 0 cbr 500 ------- 0 1.0 0.0 182 184
+ 1.425 1 0 cbr 500 ------- 0 1.0 0.0 185 187
- 1.425 1 0 cbr 500 ------- 0 1.0 0.0 185 187
r 1.429 1 0 cbr 500 ------- 0 1.0 0.0 183 185
+ 1.43 1 0 cbr 500 ------- 0 1.0 0.0 186 188
- 1.43 1 0 cbr 500 ------- 0 1.0 0.0 186 188
r 1.434 1 0 cbr 500 ------- 0 1.0 0.0 184 186
+ 1.435 1 0 cbr 500 ------- 0 1.0 0.0 187 189
- 1.435 1 0 cbr 500 ------- 0 1.0 0.0 187 189
r 1.439 1 0 cbr 500 ------- 0 1.0 0.0 185 187
+ 1.44 1 0 cbr 500 ------- 0 1.0 0.0 188 190
- 1.44 1 0 cbr 500 ------- 0 1.0 0.0 188 190
r 1.444 1 0 cbr 500 ------- 0 1.0 0.0 186 188
+ 1.445 1 0 cbr 500 ------- 0 1.0 0.0 189 191
- 1.445 1 0 cbr 500 ------- 0 1.0 0.0 189 191
r 1.449 1 0 cbr 500 ------- 0 1.0 0.0 187 189
+ 1.45 1 0 cbr 500 ------- 0 1.0 0.0 190 192
- 1.45 1 0 cbr 500 ------- 0 1.0 0.0 190 192
r 1.454 1 0 cbr 500 ------- 0 1.0 0.0 188 190
+ 1.455 1 0 cbr 500 ------- 0 1.0 0.0 191 193
- 1.455 1 0 cbr 500 ------- 0 1.0 0.0 191 193
r 1.459 1 0 cbr 500 ------- 0 1.0 0.0 189 191
+ 1.46 1 0 cbr 500 ------- 0 1.0 0.0 192 194
- 1.46 1 0 cbr 500 ------- 0 1.0 0.0 192 194
r 1.464 1 0 cbr 500 ------- 0 1.0 0.0 190 192
+ 1.465 1 0 cbr 500 ------- 0 1.0 0.0 193 195
- 1.465 1 0 cbr 500 ------- 0 1.0 0.0 193 195
r 1.469 1 0 cbr 500 ------- 0 1.0 0.0 191 193
+ 1.47 1 0 cbr 500 ------- 0 1.0 0.0 194 196
- 1.47 1 0 cbr 500 ------- 0 1.0 0.0 194 196
r 1.474 1 0 cbr 500 ------- 0 1.0 0.0 192 194
+ 1.475 1 0 cbr 500 ------- 0 1.0 0.0 195 197
- 1.475 1 0 cbr 500 ------- 0 1.0 0.0 195 197
r 1.479 1 0 cbr 500 ------- 0 1.0 0.0 193 195
+ 1.48 1 0 cbr 500 ------- 0 1.0 0.0 196 198
- 1.48 1 0 cbr 500 ------- 0 1.0 0.0 196 198
r 1.484 1 0 cbr 500 ------- 0 1.0 0.0 194 196
+ 1.485 1 0 cbr 500 ------- 0 1.0 0.0 197 199
- 1.485 1 0 cbr 500 ------- 0 1.0 0.0 197 199
r 1.489 1 0 cbr 500 ------- 0 1.0 0.0 195 197
+ 1.49 1 0 cbr 500 ------- 0 1.0 0.0 198 200
- 1.49 1 0 cbr 500 ------- 0 1.0 0.0 198 200
r 1.494 1 0 cbr 500 ------- 0 1.0 0.0 196 198
+ 1.495 1 0 cbr 500 ------- 0 1.0 0.0 199 201
- 1.495 1 0 cbr 500 ------- 0 1.0 0.0 199 201
r 1.499 1 0 cbr 500 ------- 0 1.0 0.0 197 199
+ 1.5 1 0 cbr 500 ------- 0 1.0 0.0 200 202
- 1.5 1 0 cbr 500 ------- 0 1.0 0.0 200 202
r 1.504 1 0 cbr 500 ------- 0 1.0 0.0 198 200
+ 1.505 1 0 cbr 500 ------- 0 1.0 0.0 201 203
- 1.505 1 0 cbr 500 ------- 0 1.0 0.0 201 203
r 1.509 1 0 cbr 500 ------- 0 1.0 0.0 199 201
+ 1.51 1 0 cbr 500 ------- 0 1.0 0.0 202 204
- 1.51 1 0 cbr 500 ------- 0 1.0 0.0 202 204
r 1.514 1 0 cbr 500 ------- 0 1.0 0.0 200 202
+ 1.515 1 0 cbr 500 ------- 0 1.0 0.0 203 205
- 1.515 1 0 cbr 500 ------- 0 1.0 0.0 203 205
r 1.519 1 0 cbr 500 ------- 0 1.0 0.0 201 203
+ 1.52 1 0 cbr 500 ------- 0 1.0 0.0 204 206
- 1.52 1 0 cbr 500 ------- 0 1.0 0.0 204 206
r 1.524 1 0 cbr 500 ------- 0 1.0 0.0 202 204
+ 1.525 1 0 cbr 500 ------- 0 1.0 0.0 205 207
- 1.525 1 0 cbr 500 ------- 0 1.0 0.0 205 207
r 1.529 1 0 cbr 500 ------- 0 1.0 0.0 203 205
+ 1.53 1 0 cbr 500 ------- 0 1.0 0.0 206 208
- 1.53 1 0 cbr 500 ------- 0 1.0 0.0 206 208
r 1.534 1 0 cbr 500 ------- 0 1.0 0.0 204 206
+ 1.535 1 0 cbr 500 ------- 0 1.0 0.0 207 209
- 1.535 1 0 cbr 500 ------- 0 1.0 0.0 207 209
r 1.539 1 0 cbr 500 ------- 0 1.0 0.0 205 207
+ 1.54 1 0 cbr 500 ------- 0 1.0 0.0 208 210
- 1.54 1 0 cbr 500 ------- 0 1.0 0.0 208 210
r 1.544 1 0 cbr 500 ------- 0 1.0 0.0 206 208
+ 1.545 1 0 cbr 500 ------- 0 1.0 0.0 209 211
- 1.545 1 0 cbr 500 ------- 0 1.0 0.0 209 211
r 1.549 1 0 cbr 500 ------- 0 1.0 0.0 207 209
+ 1.55 1 0 cbr 500 ------- 0 1.0 0.0 210 212
- 1.55 1 0 cbr 500 ------- 0 1.0 0.0 210 212
r 1.554 1 0 cbr 500 ------- 0 1.0 0.0 208 210
+ 1.555 1 0 cbr 500 ------- 0 1.0 0.0 211 213
- 1.555 1 0 cbr 500 ------- 0 1.0 0.0 211 213
r 1.559 1 0 cbr 500 ------- 0 1.0 0.0 209 211
+ 1.56 1 0 cbr 500 ------- 0 1.0 0.0 212 214
- 1.56 1 0 cbr 500 ------- 0 1.0 0.0 212 214
r 1.564 1 0 cbr 500 ------- 0 1.0 0.0 210 212
+ 1.565 1 0 cbr 500 ------- 0 1.0 0.0 213 215
- 1.565 1 0 cbr 500 ------- 0 1.0 0.0 213 215
r 1.569 1 0 cbr 500 ------- 0 1.0 0.0 211 213
+ 1.57 1 0 cbr 500 ------- 0 1.0 0.0 214 216
- 1.57 1 0 cbr 500 ------- 0 1.0 0.0 214 216
r 1.574 1 0 cbr 500 ------- 0 1.0 0.0 212 214
+ 1.575 1 0 cbr 500 ------- 0 1.0 0.0 215 217
- 1.575 1 0 cbr 500 ------- 0 1.0 0.0 215 217
r 1.579 1 0 cbr 500 ------- 0 1.0 0.0 213 215
+ 1.58 1 0 cbr 500 ------- 0 1.0 0.0 216 218
- 1.58 1 0 cbr 500 ------- 0 1.0 0.0 216 218
r 1.584 1 0 cbr 500 ------- 0 1.0 0.0 214 216
+ 1.585 1 0 cbr 500 ------- 0 1.0 0.0 217 219
- 1.585 1 0 cbr 500 ------- 0 1.0 0.0 217 219
r 1.589 1 0 cbr 500 ------- 0 1.0 0.0 215 217
+ 1.59 1 0 cbr 500 ------- 0 1.0 0.0 218 220
- 1.59 1 0 cbr 500 ------- 0 1.0 0.0 218 220
r 1.594 1 0 cbr 500 ------- 0 1.0 0.0 216 218
+ 1.595 1 0 cbr 500 ------- 0 1.0 0.0 219 221
- 1.595 1 0 cbr 500 ------- 0 1.0 0.0 219 221
r 1.599 1 0 cbr 500 ------- 0 1.0 0.0 217 219
+ 1.6 1 0 cbr 500 ------- 0 1.0 0.0 220 222
- 1.6 1 0 cbr 500 ------- 0 1.0 0.0 220 222
r 1.604 1 0 cbr 500 ------- 0 1.0 0.0 218 220
+ 1.605 1 0 cbr 500 ------- 0 1.0 0.0 221 223
- 1.605 1 0 cbr 500 ------- 0 1.0 0.0 221 223
r 1.609 1 0 cbr 500 ------- 0 1.0 0.0 219 221
+ 1.61 1 0 cbr 500 ------- 0 1.0 0.0 222 224